62
step 0 = 
P   0.39340 13.22169  6.67217 
P  14.05141 13.22580  6.66915 
P   9.49944 13.22449  6.67058 
P   4.94835 13.22470  6.66832 
P   0.39516  3.30555  6.67091 
P  14.04983  3.30776  6.67094 
P   9.49699  3.30532  6.67123 
P   4.94610  3.30547  6.67027 
P   0.39368  6.61331  6.67057 
P  14.05312  6.61005  6.67087 
P   4.94528  6.61149  6.67029 
P   0.39394  9.91985  6.66852 
P  14.05118  9.91962  6.67108 
P   9.50179  9.91834  6.67081 
P   4.94804  9.92025  6.67140 
P   4.15972 13.22564  4.54928 
P  17.81353 13.22091  4.54931 
P  13.26272 13.22269  4.55135 
P   8.70942 13.22596  4.55097 
P   4.15875  3.30632  4.55060 
P  17.81529  3.30443  4.54837 
P  13.26211  3.30753  4.55091 
P   8.71018  3.30779  4.55071 
P   4.16018  6.61289  4.55393 
P  17.81551  6.61250  4.55158 
P  13.26326  6.61099  4.54953 
P   8.70894  6.61462  4.55038 
P   4.15825  9.91784  4.55166 
P  17.81774  9.91895  4.55030 
P  13.26011  9.91772  4.54920 
P   8.71296  9.91816  4.55069 
P   2.67224  1.65471  4.55052 
P  16.32442  1.65226  4.55210 
P  11.77590  1.65514  4.55237 
P   7.22365  1.65271  4.55094 
P   2.67141  4.95821  4.55004 
P  16.32594  4.95763  4.55017 
P  11.77545  4.95753  4.54826 
P   7.22263  4.95659  4.54898 
P   2.67009  8.26595  4.54849 
P  16.32801  8.26423  4.54948 
P  11.77328  8.26496  4.54994 
P   7.21964  8.26438  4.55103 
P   2.66794 11.57195  4.54676 
P  16.32732 11.57038  4.55057 
P  11.77406 11.57024  4.55098 
P   7.22298 11.57258  4.55200 
P   1.88211  1.65520  6.67314 
P  15.53845  1.65301  6.67120 
P  10.98719  1.65274  6.67157 
P   6.43626  1.65256  6.66929 
P   1.88387  4.95950  6.67041 
P  15.53996  4.95961  6.66910 
P   6.43760  4.95797  6.66979 
P   1.88202  8.26534  6.67083 
P  15.53961  8.26539  6.67208 
P  10.98700  8.26641  6.67068 
P   6.43618  8.26399  6.67067 
P   1.88220 11.57316  6.67167 
P  15.54021 11.57101  6.67210 
P  10.98720 11.57366  6.67026 
P   6.43244 11.57069  6.67219 
62
step 1 = 
P   0.43592 13.25248  6.64009 
P  14.01373 13.13575  6.66796 
P   9.51079 13.21764  6.61347 
P   4.98523 13.22077  6.65872 
P   0.50320  3.33426  6.71111 
P  14.06235  3.38574  6.63264 
P   9.53398  3.31641  6.68248 
P   4.96673  3.25330  6.61196 
P   0.38516  6.63769  6.58300 
P  14.07431  6.67936  6.70136 
P   4.98025  6.61503  6.63483 
P   0.36256  9.79317  6.63959 
P  13.97111  9.98115  6.64930 
P   9.50250  9.92698  6.62817 
P   4.94098  9.89081  6.65801 
P   4.17724 13.23057  4.55806 
P  17.87179 13.23288  4.55219 
P  13.22112 13.32154  4.52090 
P   8.68155 13.15876  4.62148 
P   4.22590  3.30784  4.59648 
P  17.88223  3.41527  4.50142 
P  13.23852  3.23354  4.58695 
P   8.66932  3.24745  4.53060 
P   4.13631  6.63739  4.56804 
P  17.82738  6.75133  4.63431 
P  13.32335  6.62684  4.54045 
P   8.65800  6.66646  4.53445 
P   4.10386  9.88912  4.55259 
P  17.75648  9.97128  4.53983 
P  13.26490  9.97697  4.56505 
P   8.73983  9.93107  4.59707 
P   2.61259  1.63101  4.57637 
P  16.20131  1.59129  4.60151 
P  11.87709  1.63734  4.49113 
P   7.23037  1.71815  4.57594 
P   2.61467  5.01450  4.49370 
P  16.25194  4.82104  4.52010 
P  11.71267  4.95919  4.53935 
P   7.20208  5.00501  4.57317 
P   2.74654  8.26609  4.55688 
P  16.39404  8.24287  4.56997 
P  11.68816  8.25445  4.54091 
P   7.23777  8.18868  4.52046 
P   2.66163 11.54600  4.51709 
P  16.35974 11.48014  4.50088 
P  11.77371 11.51219  4.56735 
P   7.23686 11.60889  4.49951 
P   1.83549  1.64004  6.66575 
P  15.61869  1.66695  6.63336 
P  10.96740  1.65868  6.73832 
P   6.42396  1.65245  6.65394 
P   1.83594  4.86974  6.73676 
P  15.52545  4.93710  6.69297 
P   6.42811  4.99615  6.66846 
P   1.88662  8.32221  6.69699 
P  15.57913  8.13860  6.65821 
P  11.01783  8.26979  6.68573 
P   6.40757  8.24133  6.70269 
P   1.91000 11.63828  6.70844 
P  15.54341 11.59504  6.74675 
P  10.99273 11.55938  6.67602 
P   6.44360 11.60691  6.71220 
62
step 2 = 
P   0.46220 13.27152  6.62026 
P  13.99044 13.08009  6.66722 
P   9.51781 13.21341  6.57817 
P   5.00802 13.21834  6.65278 
P   0.56998  3.35201  6.73595 
P  14.07009  3.43394  6.60897 
P   9.55685  3.32326  6.68944 
P   4.97948  3.22105  6.57592 
P   0.37989  6.65275  6.52888 
P  14.08740  6.72220  6.72021 
P   5.00187  6.61721  6.61292 
P   0.34317  9.71488  6.62171 
P  13.92163 10.01917  6.63583 
P   9.50294  9.93231  6.60182 
P   4.93662  9.87262  6.64974 
P   4.18806 13.23362  4.56349 
P  17.90780 13.24027  4.55398 
P  13.19541 13.38262  4.50208 
P   8.66433 13.11722  4.66506 
P   4.26740  3.30878  4.62484 
P  17.92360  3.48377  4.47241 
P  13.22394  3.18781  4.60922 
P   8.64407  3.21016  4.51817 
P   4.12156  6.65253  4.57676 
P  17.83472  6.83713  4.68544 
P  13.36049  6.63664  4.53484 
P   8.62651  6.69850  4.52460 
P   4.07024  9.87137  4.55316 
P  17.71862 10.00362  4.53335 
P  13.26786 10.01359  4.57485 
P   8.75643  9.93906  4.62574 
P   2.57572  1.61637  4.59235 
P  16.12522  1.55360  4.63204 
P  11.93964  1.62635  4.45329 
P   7.23453  1.75860  4.59139 
P   2.57960  5.04928  4.45889 
P  16.20620  4.73663  4.50151 
P  11.67386  4.96022  4.53384 
P   7.18938  5.03494  4.58812 
P   2.79380  8.26617  4.56207 
P  16.43485  8.22967  4.58264 
P  11.63556  8.24796  4.53533 
P   7.24897  8.14188  4.50157 
P   2.65772 11.52996  4.49875 
P  16.37977 11.42436  4.47017 
P  11.77350 11.47630  4.57746 
P   7.24543 11.63133  4.46707 
P   1.80667  1.63067  6.66117 
P  15.66828  1.67556  6.60998 
P  10.95517  1.66235  6.77957 
P   6.41636  1.65238  6.64446 
P   1.80631  4.81426  6.77777 
P  15.51648  4.92318  6.70773 
P   6.42225  5.01974  6.66763 
P   1.88946  8.35736  6.71316 
P  15.60356  8.06023  6.64963 
P  11.03688  8.27188  6.69503 
P   6.38988  8.22732  6.72248 
P   1.92717 11.67854  6.73116 
P  15.54538 11.60989  6.79289 
P  10.99614 11.55055  6.67958 
P   6.45050 11.62930  6.73692 
62
step 3 = 
P   0.46220 13.27152  6.62026 
P  13.99044 13.08009  6.66722 
P   9.51781 13.21341  6.57817 
P   5.00802 13.21834  6.65278 
P   0.56998  3.35201  6.73595 
P  14.07009  3.43394  6.60897 
P   9.55685  3.32326  6.68944 
P   4.97948  3.22105  6.57592 
P   0.37989  6.65275  6.52888 
P  14.08740  6.72220  6.72021 
P   5.00187  6.61721  6.61292 
P   0.34317  9.71488  6.62171 
P  13.92163 10.01917  6.63583 
P   9.50294  9.93231  6.60182 
P   4.93662  9.87262  6.64974 
P   4.18806 13.23362  4.56349 
P  17.90780 13.24027  4.55398 
P  13.19541 13.38262  4.50208 
P   8.66433 13.11722  4.66506 
P   4.26740  3.30878  4.62484 
P  17.92360  3.48377  4.47241 
P  13.22394  3.18781  4.60922 
P   8.64407  3.21016  4.51817 
P   4.12156  6.65253  4.57676 
P  17.83472  6.83713  4.68544 
P  13.36049  6.63664  4.53484 
P   8.62651  6.69850  4.52460 
P   4.07024  9.87137  4.55316 
P  17.71862 10.00362  4.53335 
P  13.26786 10.01359  4.57485 
P   8.75643  9.93906  4.62574 
P   2.57572  1.61637  4.59235 
P  16.12522  1.55360  4.63204 
P  11.93964  1.62635  4.45329 
P   7.23453  1.75860  4.59139 
P   2.57960  5.04928  4.45889 
P  16.20620  4.73663  4.50151 
P  11.67386  4.96022  4.53384 
P   7.18938  5.03494  4.58812 
P   2.79380  8.26617  4.56207 
P  16.43485  8.22967  4.58264 
P  11.63556  8.24796  4.53533 
P   7.24897  8.14188  4.50157 
P   2.65772 11.52996  4.49875 
P  16.37977 11.42436  4.47017 
P  11.77350 11.47630  4.57746 
P   7.24543 11.63133  4.46707 
P   1.80667  1.63067  6.66117 
P  15.66828  1.67556  6.60998 
P  10.95517  1.66235  6.77957 
P   6.41636  1.65238  6.64446 
P   1.80631  4.81426  6.77777 
P  15.51648  4.92318  6.70773 
P   6.42225  5.01974  6.66763 
P   1.88946  8.35736  6.71316 
P  15.60356  8.06023  6.64963 
P  11.03688  8.27188  6.69503 
P   6.38988  8.22732  6.72248 
P   1.92717 11.67854  6.73116 
P  15.54538 11.60989  6.79289 
P  10.99614 11.55055  6.67958 
P   6.45050 11.62930  6.73692 
62
step 4 = 
P   0.43592 13.25248  6.64009 
P  14.01373 13.13575  6.66796 
P   9.51079 13.21764  6.61347 
P   4.98523 13.22077  6.65872 
P   0.50320  3.33426  6.71111 
P  14.06235  3.38574  6.63264 
P   9.53398  3.31641  6.68248 
P   4.96673  3.25330  6.61196 
P   0.38516  6.63769  6.58300 
P  14.07431  6.67936  6.70136 
P   4.98025  6.61503  6.63483 
P   0.36256  9.79317  6.63959 
P  13.97111  9.98115  6.64930 
P   9.50250  9.92698  6.62817 
P   4.94098  9.89081  6.65801 
P   4.17724 13.23057  4.55806 
P  17.87179 13.23288  4.55219 
P  13.22112 13.32154  4.52090 
P   8.68155 13.15876  4.62148 
P   4.22590  3.30784  4.59648 
P  17.88223  3.41527  4.50142 
P  13.23852  3.23354  4.58695 
P   8.66932  3.24745  4.53060 
P   4.13631  6.63739  4.56804 
P  17.82738  6.75133  4.63431 
P  13.32335  6.62684  4.54045 
P   8.65800  6.66646  4.53445 
P   4.10386  9.88912  4.55259 
P  17.75648  9.97128  4.53983 
P  13.26490  9.97697  4.56505 
P   8.73983  9.93107  4.59707 
P   2.61259  1.63101  4.57637 
P  16.20131  1.59129  4.60151 
P  11.87709  1.63734  4.49113 
P   7.23037  1.71815  4.57594 
P   2.61467  5.01450  4.49370 
P  16.25194  4.82104  4.52010 
P  11.71267  4.95919  4.53935 
P   7.20208  5.00501  4.57317 
P   2.74654  8.26609  4.55688 
P  16.39404  8.24287  4.56997 
P  11.68816  8.25445  4.54091 
P   7.23777  8.18868  4.52046 
P   2.66163 11.54600  4.51709 
P  16.35974 11.48014  4.50088 
P  11.77371 11.51219  4.56735 
P   7.23686 11.60889  4.49951 
P   1.83549  1.64004  6.66575 
P  15.61869  1.66695  6.63336 
P  10.96740  1.65868  6.73832 
P   6.42396  1.65245  6.65394 
P   1.83594  4.86974  6.73676 
P  15.52545  4.93710  6.69297 
P   6.42811  4.99615  6.66846 
P   1.88662  8.32221  6.69699 
P  15.57913  8.13860  6.65821 
P  11.01783  8.26979  6.68573 
P   6.40757  8.24133  6.70269 
P   1.91000 11.63828  6.70844 
P  15.54341 11.59504  6.74675 
P  10.99273 11.55938  6.67602 
P   6.44360 11.60691  6.71220 
62
step 5 = 
P   0.39340 13.22169  6.67217 
P  14.05141 13.22580  6.66915 
P   9.49944 13.22449  6.67058 
P   4.94835 13.22470  6.66832 
P   0.39516  3.30555  6.67091 
P  14.04983  3.30776  6.67094 
P   9.49699  3.30532  6.67123 
P   4.94610  3.30547  6.67027 
P   0.39368  6.61331  6.67057 
P  14.05312  6.61005  6.67087 
P   4.94528  6.61149  6.67029 
P   0.39394  9.91985  6.66852 
P  14.05118  9.91962  6.67108 
P   9.50179  9.91834  6.67081 
P   4.94804  9.92025  6.67140 
P   4.15972 13.22564  4.54928 
P  17.81353 13.22091  4.54931 
P  13.26272 13.22269  4.55135 
P   8.70942 13.22596  4.55097 
P   4.15875  3.30632  4.55060 
P  17.81529  3.30443  4.54837 
P  13.26211  3.30753  4.55091 
P   8.71018  3.30779  4.55071 
P   4.16018  6.61289  4.55393 
P  17.81551  6.61250  4.55158 
P  13.26326  6.61099  4.54953 
P   8.70894  6.61462  4.55038 
P   4.15825  9.91784  4.55166 
P  17.81774  9.91895  4.55030 
P  13.26011  9.91772  4.54920 
P   8.71296  9.91816  4.55069 
P   2.67224  1.65471  4.55052 
P  16.32442  1.65226  4.55210 
P  11.77590  1.65514  4.55237 
P   7.22365  1.65271  4.55094 
P   2.67141  4.95821  4.55004 
P  16.32594  4.95763  4.55017 
P  11.77545  4.95753  4.54826 
P   7.22263  4.95659  4.54898 
P   2.67009  8.26595  4.54849 
P  16.32801  8.26423  4.54948 
P  11.77328  8.26496  4.54994 
P   7.21964  8.26438  4.55103 
P   2.66794 11.57195  4.54676 
P  16.32732 11.57038  4.55057 
P  11.77406 11.57024  4.55098 
P   7.22298 11.57258  4.55200 
P   1.88211  1.65520  6.67314 
P  15.53845  1.65301  6.67120 
P  10.98719  1.65274  6.67157 
P   6.43626  1.65256  6.66929 
P   1.88387  4.95950  6.67041 
P  15.53996  4.95961  6.66910 
P   6.43760  4.95797  6.66979 
P   1.88202  8.26534  6.67083 
P  15.53961  8.26539  6.67208 
P  10.98700  8.26641  6.67068 
P   6.43618  8.26399  6.67067 
P   1.88220 11.57316  6.67167 
P  15.54021 11.57101  6.67210 
P  10.98720 11.57366  6.67026 
P   6.43244 11.57069  6.67219 
62
step 6 = 
P   0.35089 13.19089  6.70425 
P  14.08909 13.31585  6.67033 
P   9.48808 13.23134  6.72770 
P   4.91147 13.22863  6.67793 
P   0.28711  3.27683  6.63072 
P  14.03730  3.22977  6.70924 
P   9.46000  3.29422  6.65998 
P   4.92547  3.35765  6.72859 
P   0.40220  6.58893  6.75815 
P  14.03194  6.54075  6.64039 
P   4.91030  6.60796  6.70574 
P   0.42531 10.04653  6.69744 
P  14.13125  9.85810  6.69286 
P   9.50109  9.90970  6.71344 
P   4.95509  9.94969  6.68479 
P   4.14221 13.22071  4.54050 
P  17.75526 13.20894  4.54642 
P  13.30431 13.12385  4.58180 
P   8.73729 13.29317  4.48046 
P   4.09160  3.30480  4.50472 
P  17.74836  3.19360  4.59531 
P  13.28570  3.38151  4.51487 
P   8.75104  3.36812  4.57082 
P   4.18405  6.58839  4.53982 
P  17.80364  6.47367  4.46885 
P  13.20318  6.59513  4.55860 
P   8.75988  6.56279  4.56630 
P   4.21264  9.94655  4.55073 
P  17.87900  9.86662  4.56078 
P  13.25533  9.85846  4.53334 
P   8.68609  9.90525  4.50431 
P   2.73190  1.67840  4.52467 
P  16.44753  1.71324  4.50270 
P  11.67470  1.67293  4.61360 
P   7.21693  1.58727  4.52593 
P   2.72816  4.90193  4.60637 
P  16.39993  5.09421  4.58024 
P  11.83823  4.95587  4.55718 
P   7.24317  4.90816  4.52479 
P   2.59363  8.26582  4.54010 
P  16.26198  8.28559  4.52898 
P  11.85839  8.27547  4.55897 
P   7.20151  8.34009  4.58160 
P   2.67426 11.59790  4.57644 
P  16.29490 11.66063  4.60026 
P  11.77440 11.62830  4.53461 
P   7.20911 11.53627  4.60449 
P   1.92874  1.67036  6.68054 
P  15.45822  1.63908  6.70904 
P  11.00698  1.64679  6.60482 
P   6.44856  1.65268  6.68464 
P   1.93181  5.04926  6.60406 
P  15.55447  4.98213  6.64523 
P   6.44708  4.91979  6.67113 
P   1.87743  8.20846  6.64467 
P  15.50009  8.39219  6.68595 
P  10.95618  8.26302  6.65563 
P   6.46479  8.28665  6.63865 
P   1.85441 11.50803  6.63490 
P  15.53702 11.54698  6.59745 
P  10.98168 11.58794  6.66449 
P   6.42127 11.53446  6.63218 
62
step 7 = 
P   0.32461 13.17185  6.72407 
P  14.11238 13.37151  6.67107 
P   9.48106 13.23557  6.76299 
P   4.88868 13.23106  6.68387 
P   0.22034  3.25909  6.60588 
P  14.02957  3.18157  6.73290 
P   9.43714  3.28737  6.65303 
P   4.91272  3.38989  6.76463 
P   0.40746  6.57387  6.81227 
P  14.01884  6.49791  6.62154 
P   4.88868  6.60578  6.72765 
P   0.44470 10.12483  6.71532 
P  14.18073  9.82008  6.70633 
P   9.50065  9.90436  6.73979 
P   4.95946  9.96788  6.69306 
P   4.13138 13.21766  4.53508 
P  17.71926 13.20155  4.54464 
P  13.33002 13.06276  4.60062 
P   8.75451 13.33470  4.43688 
P   4.05009  3.30386  4.47636 
P  17.70699  3.12510  4.62432 
P  13.30028  3.42724  4.49259 
P   8.77629  3.40541  4.58325 
P   4.19881  6.57325  4.53110 
P  17.79630  6.38788  4.41772 
P  13.16604  6.58533  4.56421 
P   8.79136  6.53075  4.57615 
P   4.24626  9.96430  4.55016 
P  17.91686  9.83428  4.56725 
P  13.25237  9.82184  4.52354 
P   8.66948  9.89727  4.47564 
P   2.76877  1.69305  4.50869 
P  16.52362  1.75092  4.47216 
P  11.61215  1.68393  4.65145 
P   7.21278  1.54682  4.51048 
P   2.76323  4.86715  4.64119 
P  16.44567  5.17863  4.59882 
P  11.87704  4.95485  4.56268 
P   7.25587  4.87823  4.50984 
P   2.54638  8.26573  4.53491 
P  16.22117  8.29879  4.51631 
P  11.91100  8.28196  4.56455 
P   7.19031  8.38689  4.60050 
P   2.67816 11.61394  4.59478 
P  16.27486 11.71640  4.63098 
P  11.77462 11.66418  4.52449 
P   7.20054 11.51383  4.63693 
P   1.95755  1.67972  6.68511 
P  15.40863  1.63046  6.73242 
P  11.01920  1.64312  6.56356 
P   6.45616  1.65275  6.69412 
P   1.96144  5.10474  6.56305 
P  15.56343  4.99604  6.63048 
P   6.45295  4.89620  6.67195 
P   1.87459  8.17331  6.62850 
P  15.47567  8.47055  6.69453 
P  10.93712  8.26093  6.64633 
P   6.48248  8.30066  6.61886 
P   1.83723 11.46778  6.61218 
P  15.53505 11.53213  6.55132 
P  10.97827 11.59676  6.66093 
P   6.41437 11.51207  6.60746 
62
step 8 = 
P   0.32461 13.17185  6.72407 
P  14.11238 13.37151  6.67107 
P   9.48106 13.23557  6.76299 
P   4.88868 13.23106  6.68387 
P   0.22034  3.25909  6.60588 
P  14.02957  3.18157  6.73290 
P   9.43714  3.28737  6.65303 
P   4.91272  3.38989  6.76463 
P   0.40746  6.57387  6.81227 
P  14.01884  6.49791  6.62154 
P   4.88868  6.60578  6.72765 
P   0.44470 10.12483  6.71532 
P  14.18073  9.82008  6.70633 
P   9.50065  9.90436  6.73979 
P   4.95946  9.96788  6.69306 
P   4.13138 13.21766  4.53508 
P  17.71926 13.20155  4.54464 
P  13.33002 13.06276  4.60062 
P   8.75451 13.33470  4.43688 
P   4.05009  3.30386  4.47636 
P  17.70699  3.12510  4.62432 
P  13.30028  3.42724  4.49259 
P   8.77629  3.40541  4.58325 
P   4.19881  6.57325  4.53110 
P  17.79630  6.38788  4.41772 
P  13.16604  6.58533  4.56421 
P   8.79136  6.53075  4.57615 
P   4.24626  9.96430  4.55016 
P  17.91686  9.83428  4.56725 
P  13.25237  9.82184  4.52354 
P   8.66948  9.89727  4.47564 
P   2.76877  1.69305  4.50869 
P  16.52362  1.75092  4.47216 
P  11.61215  1.68393  4.65145 
P   7.21278  1.54682  4.51048 
P   2.76323  4.86715  4.64119 
P  16.44567  5.17863  4.59882 
P  11.87704  4.95485  4.56268 
P   7.25587  4.87823  4.50984 
P   2.54638  8.26573  4.53491 
P  16.22117  8.29879  4.51631 
P  11.91100  8.28196  4.56455 
P   7.19031  8.38689  4.60050 
P   2.67816 11.61394  4.59478 
P  16.27486 11.71640  4.63098 
P  11.77462 11.66418  4.52449 
P   7.20054 11.51383  4.63693 
P   1.95755  1.67972  6.68511 
P  15.40863  1.63046  6.73242 
P  11.01920  1.64312  6.56356 
P   6.45616  1.65275  6.69412 
P   1.96144  5.10474  6.56305 
P  15.56343  4.99604  6.63048 
P   6.45295  4.89620  6.67195 
P   1.87459  8.17331  6.62850 
P  15.47567  8.47055  6.69453 
P  10.93712  8.26093  6.64633 
P   6.48248  8.30066  6.61886 
P   1.83723 11.46778  6.61218 
P  15.53505 11.53213  6.55132 
P  10.97827 11.59676  6.66093 
P   6.41437 11.51207  6.60746 
62
step 9 = 
P   0.35089 13.19089  6.70425 
P  14.08909 13.31585  6.67033 
P   9.48808 13.23134  6.72770 
P   4.91147 13.22863  6.67793 
P   0.28711  3.27683  6.63072 
P  14.03730  3.22977  6.70924 
P   9.46000  3.29422  6.65998 
P   4.92547  3.35765  6.72859 
P   0.40220  6.58893  6.75815 
P  14.03194  6.54075  6.64039 
P   4.91030  6.60796  6.70574 
P   0.42531 10.04653  6.69744 
P  14.13125  9.85810  6.69286 
P   9.50109  9.90970  6.71344 
P   4.95509  9.94969  6.68479 
P   4.14221 13.22071  4.54050 
P  17.75526 13.20894  4.54642 
P  13.30431 13.12385  4.58180 
P   8.73729 13.29317  4.48046 
P   4.09160  3.30480  4.50472 
P  17.74836  3.19360  4.59531 
P  13.28570  3.38151  4.51487 
P   8.75104  3.36812  4.57082 
P   4.18405  6.58839  4.53982 
P  17.80364  6.47367  4.46885 
P  13.20318  6.59513  4.55860 
P   8.75988  6.56279  4.56630 
P   4.21264  9.94655  4.55073 
P  17.87900  9.86662  4.56078 
P  13.25533  9.85846  4.53334 
P   8.68609  9.90525  4.50431 
P   2.73190  1.67840  4.52467 
P  16.44753  1.71324  4.50270 
P  11.67470  1.67293  4.61360 
P   7.21693  1.58727  4.52593 
P   2.72816  4.90193  4.60637 
P  16.39993  5.09421  4.58024 
P  11.83823  4.95587  4.55718 
P   7.24317  4.90816  4.52479 
P   2.59363  8.26582  4.54010 
P  16.26198  8.28559  4.52898 
P  11.85839  8.27547  4.55897 
P   7.20151  8.34009  4.58160 
P   2.67426 11.59790  4.57644 
P  16.29490 11.66063  4.60026 
P  11.77440 11.62830  4.53461 
P   7.20911 11.53627  4.60449 
P   1.92874  1.67036  6.68054 
P  15.45822  1.63908  6.70904 
P  11.00698  1.64679  6.60482 
P   6.44856  1.65268  6.68464 
P   1.93181  5.04926  6.60406 
P  15.55447  4.98213  6.64523 
P   6.44708  4.91979  6.67113 
P   1.87743  8.20846  6.64467 
P  15.50009  8.39219  6.68595 
P  10.95618  8.26302  6.65563 
P   6.46479  8.28665  6.63865 
P   1.85441 11.50803  6.63490 
P  15.53702 11.54698  6.59745 
P  10.98168 11.58794  6.66449 
P   6.42127 11.53446  6.63218 
62
step 10 = 
P   0.39340 13.22169  6.67217 
P  14.05141 13.22580  6.66915 
P   9.49944 13.22449  6.67058 
P   4.94835 13.22470  6.66832 
P   0.39516  3.30555  6.67091 
P  14.04983  3.30776  6.67094 
P   9.49699  3.30532  6.67123 
P   4.94610  3.30547  6.67027 
P   0.39368  6.61331  6.67057 
P  14.05312  6.61005  6.67087 
P   4.94528  6.61149  6.67029 
P   0.39394  9.91985  6.66852 
P  14.05118  9.91962  6.67108 
P   9.50179  9.91834  6.67081 
P   4.94804  9.92025  6.67140 
P   4.15972 13.22564  4.54928 
P  17.81353 13.22091  4.54931 
P  13.26272 13.22269  4.55135 
P   8.70942 13.22596  4.55097 
P   4.15875  3.30632  4.55060 
P  17.81529  3.30443  4.54837 
P  13.26211  3.30753  4.55091 
P   8.71018  3.30779  4.55071 
P   4.16018  6.61289  4.55393 
P  17.81551  6.61250  4.55158 
P  13.26326  6.61099  4.54953 
P   8.70894  6.61462  4.55038 
P   4.15825  9.91784  4.55166 
P  17.81774  9.91895  4.55030 
P  13.26011  9.91772  4.54920 
P   8.71296  9.91816  4.55069 
P   2.67224  1.65471  4.55052 
P  16.32442  1.65226  4.55210 
P  11.77590  1.65514  4.55237 
P   7.22365  1.65271  4.55094 
P   2.67141  4.95821  4.55004 
P  16.32594  4.95763  4.55017 
P  11.77545  4.95753  4.54826 
P   7.22263  4.95659  4.54898 
P   2.67009  8.26595  4.54849 
P  16.32801  8.26423  4.54948 
P  11.77328  8.26496  4.54994 
P   7.21964  8.26438  4.55103 
P   2.66794 11.57195  4.54676 
P  16.32732 11.57038  4.55057 
P  11.77406 11.57024  4.55098 
P   7.22298 11.57258  4.55200 
P   1.88211  1.65520  6.67314 
P  15.53845  1.65301  6.67120 
P  10.98719  1.65274  6.67157 
P   6.43626  1.65256  6.66929 
P   1.88387  4.95950  6.67041 
P  15.53996  4.95961  6.66910 
P   6.43760  4.95797  6.66979 
P   1.88202  8.26534  6.67083 
P  15.53961  8.26539  6.67208 
P  10.98700  8.26641  6.67068 
P   6.43618  8.26399  6.67067 
P   1.88220 11.57316  6.67167 
P  15.54021 11.57101  6.67210 
P  10.98720 11.57366  6.67026 
P   6.43244 11.57069  6.67219 
62
step 11 = 
P   0.43592 13.25248  6.64009 
P  14.01373 13.13575  6.66796 
P   9.51079 13.21764  6.61347 
P   4.98523 13.22077  6.65872 
P   0.50320  3.33426  6.71111 
P  14.06235  3.38574  6.63264 
P   9.53398  3.31641  6.68248 
P   4.96673  3.25330  6.61196 
P   0.38516  6.63769  6.58300 
P  14.07431  6.67936  6.70136 
P   4.98025  6.61503  6.63483 
P   0.36256  9.79317  6.63959 
P  13.97111  9.98115  6.64930 
P   9.50250  9.92698  6.62817 
P   4.94098  9.89081  6.65801 
P   4.17724 13.23057  4.55806 
P  17.87179 13.23288  4.55219 
P  13.22112 13.32154  4.52090 
P   8.68155 13.15876  4.62148 
P   4.22590  3.30784  4.59648 
P  17.88223  3.41527  4.50142 
P  13.23852  3.23354  4.58695 
P   8.66932  3.24745  4.53060 
P   4.13631  6.63739  4.56804 
P  17.82738  6.75133  4.63431 
P  13.32335  6.62684  4.54045 
P   8.65800  6.66646  4.53445 
P   4.10386  9.88912  4.55259 
P  17.75648  9.97128  4.53983 
P  13.26490  9.97697  4.56505 
P   8.73983  9.93107  4.59707 
P   2.61259  1.63101  4.57637 
P  16.20131  1.59129  4.60151 
P  11.87709  1.63734  4.49113 
P   7.23037  1.71815  4.57594 
P   2.61467  5.01450  4.49370 
P  16.25194  4.82104  4.52010 
P  11.71267  4.95919  4.53935 
P   7.20208  5.00501  4.57317 
P   2.74654  8.26609  4.55688 
P  16.39404  8.24287  4.56997 
P  11.68816  8.25445  4.54091 
P   7.23777  8.18868  4.52046 
P   2.66163 11.54600  4.51709 
P  16.35974 11.48014  4.50088 
P  11.77371 11.51219  4.56735 
P   7.23686 11.60889  4.49951 
P   1.83549  1.64004  6.66575 
P  15.61869  1.66695  6.63336 
P  10.96740  1.65868  6.73832 
P   6.42396  1.65245  6.65394 
P   1.83594  4.86974  6.73676 
P  15.52545  4.93710  6.69297 
P   6.42811  4.99615  6.66846 
P   1.88662  8.32221  6.69699 
P  15.57913  8.13860  6.65821 
P  11.01783  8.26979  6.68573 
P   6.40757  8.24133  6.70269 
P   1.91000 11.63828  6.70844 
P  15.54341 11.59504  6.74675 
P  10.99273 11.55938  6.67602 
P   6.44360 11.60691  6.71220 
62
step 12 = 
P   0.46220 13.27152  6.62026 
P  13.99044 13.08009  6.66722 
P   9.51781 13.21341  6.57817 
P   5.00802 13.21834  6.65278 
P   0.56998  3.35201  6.73595 
P  14.07009  3.43394  6.60897 
P   9.55685  3.32326  6.68944 
P   4.97948  3.22105  6.57592 
P   0.37989  6.65275  6.52888 
P  14.08740  6.72220  6.72021 
P   5.00187  6.61721  6.61292 
P   0.34317  9.71488  6.62171 
P  13.92163 10.01917  6.63583 
P   9.50294  9.93231  6.60182 
P   4.93662  9.87262  6.64974 
P   4.18806 13.23362  4.56349 
P  17.90780 13.24027  4.55398 
P  13.19541 13.38262  4.50208 
P   8.66433 13.11722  4.66506 
P   4.26740  3.30878  4.62484 
P  17.92360  3.48377  4.47241 
P  13.22394  3.18781  4.60922 
P   8.64407  3.21016  4.51817 
P   4.12156  6.65253  4.57676 
P  17.83472  6.83713  4.68544 
P  13.36049  6.63664  4.53484 
P   8.62651  6.69850  4.52460 
P   4.07024  9.87137  4.55316 
P  17.71862 10.00362  4.53335 
P  13.26786 10.01359  4.57485 
P   8.75643  9.93906  4.62574 
P   2.57572  1.61637  4.59235 
P  16.12522  1.55360  4.63204 
P  11.93964  1.62635  4.45329 
P   7.23453  1.75860  4.59139 
P   2.57960  5.04928  4.45889 
P  16.20620  4.73663  4.50151 
P  11.67386  4.96022  4.53384 
P   7.18938  5.03494  4.58812 
P   2.79380  8.26617  4.56207 
P  16.43485  8.22967  4.58264 
P  11.63556  8.24796  4.53533 
P   7.24897  8.14188  4.50157 
P   2.65772 11.52996  4.49875 
P  16.37977 11.42436  4.47017 
P  11.77350 11.47630  4.57746 
P   7.24543 11.63133  4.46707 
P   1.80667  1.63067  6.66117 
P  15.66828  1.67556  6.60998 
P  10.95517  1.66235  6.77957 
P   6.41636  1.65238  6.64446 
P   1.80631  4.81426  6.77777 
P  15.51648  4.92318  6.70773 
P   6.42225  5.01974  6.66763 
P   1.88946  8.35736  6.71316 
P  15.60356  8.06023  6.64963 
P  11.03688  8.27188  6.69503 
P   6.38988  8.22732  6.72248 
P   1.92717 11.67854  6.73116 
P  15.54538 11.60989  6.79289 
P  10.99614 11.55055  6.67958 
P   6.45050 11.62930  6.73692 
62
step 13 = 
P   0.46220 13.27152  6.62026 
P  13.99044 13.08009  6.66722 
P   9.51781 13.21341  6.57817 
P   5.00802 13.21834  6.65278 
P   0.56998  3.35201  6.73595 
P  14.07009  3.43394  6.60897 
P   9.55685  3.32326  6.68944 
P   4.97948  3.22105  6.57592 
P   0.37989  6.65275  6.52888 
P  14.08740  6.72220  6.72021 
P   5.00187  6.61721  6.61292 
P   0.34317  9.71488  6.62171 
P  13.92163 10.01917  6.63583 
P   9.50294  9.93231  6.60182 
P   4.93662  9.87262  6.64974 
P   4.18806 13.23362  4.56349 
P  17.90780 13.24027  4.55398 
P  13.19541 13.38262  4.50208 
P   8.66433 13.11722  4.66506 
P   4.26740  3.30878  4.62484 
P  17.92360  3.48377  4.47241 
P  13.22394  3.18781  4.60922 
P   8.64407  3.21016  4.51817 
P   4.12156  6.65253  4.57676 
P  17.83472  6.83713  4.68544 
P  13.36049  6.63664  4.53484 
P   8.62651  6.69850  4.52460 
P   4.07024  9.87137  4.55316 
P  17.71862 10.00362  4.53335 
P  13.26786 10.01359  4.57485 
P   8.75643  9.93906  4.62574 
P   2.57572  1.61637  4.59235 
P  16.12522  1.55360  4.63204 
P  11.93964  1.62635  4.45329 
P   7.23453  1.75860  4.59139 
P   2.57960  5.04928  4.45889 
P  16.20620  4.73663  4.50151 
P  11.67386  4.96022  4.53384 
P   7.18938  5.03494  4.58812 
P   2.79380  8.26617  4.56207 
P  16.43485  8.22967  4.58264 
P  11.63556  8.24796  4.53533 
P   7.24897  8.14188  4.50157 
P   2.65772 11.52996  4.49875 
P  16.37977 11.42436  4.47017 
P  11.77350 11.47630  4.57746 
P   7.24543 11.63133  4.46707 
P   1.80667  1.63067  6.66117 
P  15.66828  1.67556  6.60998 
P  10.95517  1.66235  6.77957 
P   6.41636  1.65238  6.64446 
P   1.80631  4.81426  6.77777 
P  15.51648  4.92318  6.70773 
P   6.42225  5.01974  6.66763 
P   1.88946  8.35736  6.71316 
P  15.60356  8.06023  6.64963 
P  11.03688  8.27188  6.69503 
P   6.38988  8.22732  6.72248 
P   1.92717 11.67854  6.73116 
P  15.54538 11.60989  6.79289 
P  10.99614 11.55055  6.67958 
P   6.45050 11.62930  6.73692 
62
step 14 = 
P   0.43592 13.25248  6.64009 
P  14.01373 13.13575  6.66796 
P   9.51079 13.21764  6.61347 
P   4.98523 13.22077  6.65872 
P   0.50320  3.33426  6.71111 
P  14.06235  3.38574  6.63264 
P   9.53398  3.31641  6.68248 
P   4.96673  3.25330  6.61196 
P   0.38516  6.63769  6.58300 
P  14.07431  6.67936  6.70136 
P   4.98025  6.61503  6.63483 
P   0.36256  9.79317  6.63959 
P  13.97111  9.98115  6.64930 
P   9.50250  9.92698  6.62817 
P   4.94098  9.89081  6.65801 
P   4.17724 13.23057  4.55806 
P  17.87179 13.23288  4.55219 
P  13.22112 13.32154  4.52090 
P   8.68155 13.15876  4.62148 
P   4.22590  3.30784  4.59648 
P  17.88223  3.41527  4.50142 
P  13.23852  3.23354  4.58695 
P   8.66932  3.24745  4.53060 
P   4.13631  6.63739  4.56804 
P  17.82738  6.75133  4.63431 
P  13.32335  6.62684  4.54045 
P   8.65800  6.66646  4.53445 
P   4.10386  9.88912  4.55259 
P  17.75648  9.97128  4.53983 
P  13.26490  9.97697  4.56505 
P   8.73983  9.93107  4.59707 
P   2.61259  1.63101  4.57637 
P  16.20131  1.59129  4.60151 
P  11.87709  1.63734  4.49113 
P   7.23037  1.71815  4.57594 
P   2.61467  5.01450  4.49370 
P  16.25194  4.82104  4.52010 
P  11.71267  4.95919  4.53935 
P   7.20208  5.00501  4.57317 
P   2.74654  8.26609  4.55688 
P  16.39404  8.24287  4.56997 
P  11.68816  8.25445  4.54091 
P   7.23777  8.18868  4.52046 
P   2.66163 11.54600  4.51709 
P  16.35974 11.48014  4.50088 
P  11.77371 11.51219  4.56735 
P   7.23686 11.60889  4.49951 
P   1.83549  1.64004  6.66575 
P  15.61869  1.66695  6.63336 
P  10.96740  1.65868  6.73832 
P   6.42396  1.65245  6.65394 
P   1.83594  4.86974  6.73676 
P  15.52545  4.93710  6.69297 
P   6.42811  4.99615  6.66846 
P   1.88662  8.32221  6.69699 
P  15.57913  8.13860  6.65821 
P  11.01783  8.26979  6.68573 
P   6.40757  8.24133  6.70269 
P   1.91000 11.63828  6.70844 
P  15.54341 11.59504  6.74675 
P  10.99273 11.55938  6.67602 
P   6.44360 11.60691  6.71220 
62
step 15 = 
P   0.39340 13.22169  6.67217 
P  14.05141 13.22580  6.66915 
P   9.49944 13.22449  6.67058 
P   4.94835 13.22470  6.66832 
P   0.39516  3.30555  6.67091 
P  14.04983  3.30776  6.67094 
P   9.49699  3.30532  6.67123 
P   4.94610  3.30547  6.67027 
P   0.39368  6.61331  6.67057 
P  14.05312  6.61005  6.67087 
P   4.94528  6.61149  6.67029 
P   0.39394  9.91985  6.66852 
P  14.05118  9.91962  6.67108 
P   9.50179  9.91834  6.67081 
P   4.94804  9.92025  6.67140 
P   4.15972 13.22564  4.54928 
P  17.81353 13.22091  4.54931 
P  13.26272 13.22269  4.55135 
P   8.70942 13.22596  4.55097 
P   4.15875  3.30632  4.55060 
P  17.81529  3.30443  4.54837 
P  13.26211  3.30753  4.55091 
P   8.71018  3.30779  4.55071 
P   4.16018  6.61289  4.55393 
P  17.81551  6.61250  4.55158 
P  13.26326  6.61099  4.54953 
P   8.70894  6.61462  4.55038 
P   4.15825  9.91784  4.55166 
P  17.81774  9.91895  4.55030 
P  13.26011  9.91772  4.54920 