62
step 0 = 
P   0.39340 13.22169  6.67217 
P  14.05141 13.22580  6.66915 
P   9.49944 13.22449  6.67058 
P   4.94835 13.22470  6.66832 
P   0.39516  3.30555  6.67091 
P  14.04983  3.30776  6.67094 
P   9.49699  3.30532  6.67123 
P   4.94610  3.30547  6.67027 
P   0.39368  6.61331  6.67057 
P  14.05312  6.61005  6.67087 
P   4.94528  6.61149  6.67029 
P   0.39394  9.91985  6.66852 
P  14.05118  9.91962  6.67108 
P   9.50179  9.91834  6.67081 
P   4.94804  9.92025  6.67140 
P   4.15972 13.22564  4.54928 
P  17.81353 13.22091  4.54931 
P  13.26272 13.22269  4.55135 
P   8.70942 13.22596  4.55097 
P   4.15875  3.30632  4.55060 
P  17.81529  3.30443  4.54837 
P  13.26211  3.30753  4.55091 
P   8.71018  3.30779  4.55071 
P   4.16018  6.61289  4.55393 
P  17.81551  6.61250  4.55158 
P  13.26326  6.61099  4.54953 
P   8.70894  6.61462  4.55038 
P   4.15825  9.91784  4.55166 
P  17.81774  9.91895  4.55030 
P  13.26011  9.91772  4.54920 
P   8.71296  9.91816  4.55069 
P   2.67224  1.65471  4.55052 
P  16.32442  1.65226  4.55210 
P  11.77590  1.65514  4.55237 
P   7.22365  1.65271  4.55094 
P   2.67141  4.95821  4.55004 
P  16.32594  4.95763  4.55017 
P  11.77545  4.95753  4.54826 
P   7.22263  4.95659  4.54898 
P   2.67009  8.26595  4.54849 
P  16.32801  8.26423  4.54948 
P  11.77328  8.26496  4.54994 
P   7.21964  8.26438  4.55103 
P   2.66794 11.57195  4.54676 
P  16.32732 11.57038  4.55057 
P  11.77406 11.57024  4.55098 
P   7.22298 11.57258  4.55200 
P   1.88211  1.65520  6.67314 
P  15.53845  1.65301  6.67120 
P  10.98719  1.65274  6.67157 
P   6.43626  1.65256  6.66929 
P   1.88387  4.95950  6.67041 
P  15.53996  4.95961  6.66910 
P   6.43760  4.95797  6.66979 
P   1.88202  8.26534  6.67083 
P  15.53961  8.26539  6.67208 
P  10.98700  8.26641  6.67068 
P   6.43618  8.26399  6.67067 
P   1.88220 11.57316  6.67167 
P  15.54021 11.57101  6.67210 
P  10.98720 11.57366  6.67026 
P   6.43244 11.57069  6.67219 
62
step 1 = 
P   0.37929 13.24426  6.71667 
P  14.04672 13.22484  6.67493 
P   9.46924 13.29924  6.65882 
P   4.99116 13.29225  6.65004 
P   0.36275  3.31853  6.70760 
P  14.19530  3.25766  6.71509 
P   9.56303  3.28152  6.71675 
P   4.85710  3.28322  6.64274 
P   0.34955  6.62640  6.65286 
P  13.95919  6.59096  6.60801 
P   5.03197  6.65794  6.76725 
P   0.38127  9.98594  6.67218 
P  14.03021  9.90098  6.66216 
P   9.48245  9.82359  6.69349 
P   4.92302  9.91616  6.66414 
P   4.11731 13.21291  4.57107 
P  17.82679 13.21998  4.57251 
P  13.25782 13.20903  4.44005 
P   8.67654 13.20542  4.49290 
P   4.19569  3.36459  4.53456 
P  17.87817  3.37413  4.58544 
P  13.16911  3.33097  4.65298 
P   8.75409  3.28823  4.57847 
P   4.14800  6.55645  4.60990 
P  17.69453  6.54180  4.51579 
P  13.34539  6.59089  4.53293 
P   8.69305  6.62972  4.50928 
P   4.18910  9.91886  4.54080 
P  17.80659  9.94164  4.55008 
P  13.28418  9.95056  4.68042 
P   8.72538  9.94991  4.55723 
P   2.59145  1.65495  4.54215 
P  16.42434  1.66254  4.53459 
P  11.81457  1.66838  4.57357 
P   7.23916  1.60694  4.52966 
P   2.61241  5.00208  4.58863 
P  16.32379  4.96667  4.49825 
P  11.81755  4.95667  4.58549 
P   7.27240  4.93357  4.48506 
P   2.77978  8.28128  4.44658 
P  16.34563  8.28303  4.58067 
P  11.74312  8.29949  4.52340 
P   7.15853  8.23744  4.62868 
P   2.60505 11.55362  4.54888 
P  16.21165 11.58897  4.56760 
P  11.75430 11.48141  4.55172 
P   7.24662 11.61244  4.53899 
P   1.87357  1.61986  6.67648 
P  15.55836  1.63939  6.55760 
P  10.97211  1.60189  6.70040 
P   6.42359  1.61889  6.69848 
P   1.80529  5.00517  6.62743 
P  15.56613  4.93928  6.66516 
P   6.49027  4.92445  6.66476 
P   1.95109  8.23356  6.62186 
P  15.51114  8.26232  6.67146 
P  11.05824  8.22590  6.59274 
P   6.55297  8.26501  6.70150 
P   1.86742 11.57409  6.66785 
P  15.52731 11.64120  6.72943 
P  10.96068 11.62933  6.65026 
P   6.38114 11.54992  6.65698 
62
step 2 = 
P   0.37057 13.25821  6.74417 
P  14.04382 13.22424  6.67851 
P   9.45057 13.34544  6.65155 
P   5.01762 13.33399  6.63873 
P   0.34272  3.32656  6.73028 
P  14.28520  3.22669  6.74238 
P   9.60384  3.26681  6.74488 
P   4.80210  3.26947  6.62572 
P   0.32228  6.63449  6.64192 
P  13.90114  6.57915  6.56916 
P   5.08556  6.68664  6.82718 
P   0.37344 10.02678  6.67444 
P  14.01725  9.88946  6.65665 
P   9.47049  9.76504  6.70751 
P   4.90756  9.91364  6.65966 
P   4.09109 13.20505  4.58454 
P  17.83498 13.21941  4.58685 
P  13.25480 13.20059  4.37126 
P   8.65621 13.19272  4.45702 
P   4.21853  3.40061  4.52465 
P  17.91703  3.41720  4.60835 
P  13.11164  3.34546  4.71607 
P   8.78122  3.27615  4.59563 
P   4.14047  6.52157  4.64450 
P  17.61976  6.49810  4.49367 
P  13.39614  6.57848  4.52267 
P   8.68323  6.63905  4.48388 
P   4.20816  9.91949  4.53409 
P  17.79970  9.95567  4.54994 
P  13.29905  9.97086  4.76151 
P   8.73306  9.96953  4.56127 
P   2.54152  1.65510  4.53698 
P  16.48610  1.66889  4.52376 
P  11.83848  1.67656  4.58667 
P   7.24874  1.57865  4.51651 
P   2.57594  5.02920  4.61248 
P  16.32247  4.97226  4.46616 
P  11.84357  4.95614  4.60850 
P   7.30316  4.91935  4.44556 
P   2.84757  8.29076  4.38360 
P  16.35652  8.29464  4.59994 
P  11.72448  8.32082  4.50700 
P   7.12076  8.22079  4.67667 
P   2.56617 11.54230  4.55019 
P  16.14017 11.60046  4.57812 
P  11.74210 11.42651  4.55218 
P   7.26124 11.63708  4.53095 
P   1.86828  1.59802  6.67855 
P  15.57066  1.63097  6.48740 
P  10.96279  1.57047  6.71822 
P   6.41576  1.59808  6.71652 
P   1.75672  5.03340  6.60087 
P  15.58231  4.92672  6.66272 
P   6.52283  4.90373  6.66165 
P   1.99378  8.21391  6.59160 
P  15.49354  8.26041  6.67108 
P  11.10226  8.20087  6.54456 
P   6.62515  8.26563  6.72056 
P   1.85829 11.57467  6.66549 
P  15.51934 11.68459  6.76487 
P  10.94429 11.66374  6.63791 
P   6.34943 11.53709  6.64759 
62
step 3 = 
P   0.37057 13.25821  6.74417 
P  14.04382 13.22424  6.67851 
P   9.45057 13.34544  6.65155 
P   5.01762 13.33399  6.63873 
P   0.34272  3.32656  6.73028 
P  14.28520  3.22669  6.74238 
P   9.60384  3.26681  6.74488 
P   4.80210  3.26947  6.62572 
P   0.32228  6.63449  6.64192 
P  13.90114  6.57915  6.56916 
P   5.08556  6.68664  6.82718 
P   0.37344 10.02678  6.67444 
P  14.01725  9.88946  6.65665 
P   9.47049  9.76504  6.70751 
P   4.90756  9.91364  6.65966 
P   4.09109 13.20505  4.58454 
P  17.83498 13.21941  4.58685 
P  13.25480 13.20059  4.37126 
P   8.65621 13.19272  4.45702 
P   4.21853  3.40061  4.52465 
P  17.91703  3.41720  4.60835 
P  13.11164  3.34546  4.71607 
P   8.78122  3.27615  4.59563 
P   4.14047  6.52157  4.64450 
P  17.61976  6.49810  4.49367 
P  13.39614  6.57848  4.52267 
P   8.68323  6.63905  4.48388 
P   4.20816  9.91949  4.53409 
P  17.79970  9.95567  4.54994 
P  13.29905  9.97086  4.76151 
P   8.73306  9.96953  4.56127 
P   2.54152  1.65510  4.53698 
P  16.48610  1.66889  4.52376 
P  11.83848  1.67656  4.58667 
P   7.24874  1.57865  4.51651 
P   2.57594  5.02920  4.61248 
P  16.32247  4.97226  4.46616 
P  11.84357  4.95614  4.60850 
P   7.30316  4.91935  4.44556 
P   2.84757  8.29076  4.38360 
P  16.35652  8.29464  4.59994 
P  11.72448  8.32082  4.50700 
P   7.12076  8.22079  4.67667 
P   2.56617 11.54230  4.55019 
P  16.14017 11.60046  4.57812 
P  11.74210 11.42651  4.55218 
P   7.26124 11.63708  4.53095 
P   1.86828  1.59802  6.67855 
P  15.57066  1.63097  6.48740 
P  10.96279  1.57047  6.71822 
P   6.41576  1.59808  6.71652 
P   1.75672  5.03340  6.60087 
P  15.58231  4.92672  6.66272 
P   6.52283  4.90373  6.66165 
P   1.99378  8.21391  6.59160 
P  15.49354  8.26041  6.67108 
P  11.10226  8.20087  6.54456 
P   6.62515  8.26563  6.72056 
P   1.85829 11.57467  6.66549 
P  15.51934 11.68459  6.76487 
P  10.94429 11.66374  6.63791 
P   6.34943 11.53709  6.64759 
62
step 4 = 
P   0.37929 13.24426  6.71667 
P  14.04672 13.22484  6.67493 
P   9.46924 13.29924  6.65882 
P   4.99116 13.29225  6.65004 
P   0.36275  3.31853  6.70760 
P  14.19530  3.25766  6.71509 
P   9.56303  3.28152  6.71675 
P   4.85710  3.28322  6.64274 
P   0.34955  6.62640  6.65286 
P  13.95919  6.59096  6.60801 
P   5.03197  6.65794  6.76725 
P   0.38127  9.98594  6.67218 
P  14.03021  9.90098  6.66216 
P   9.48245  9.82359  6.69349 
P   4.92302  9.91616  6.66414 
P   4.11731 13.21291  4.57107 
P  17.82679 13.21998  4.57251 
P  13.25782 13.20903  4.44005 
P   8.67654 13.20542  4.49290 
P   4.19569  3.36459  4.53456 
P  17.87817  3.37413  4.58544 
P  13.16911  3.33097  4.65298 
P   8.75409  3.28823  4.57847 
P   4.14800  6.55645  4.60990 
P  17.69453  6.54180  4.51579 
P  13.34539  6.59089  4.53293 
P   8.69305  6.62972  4.50928 
P   4.18910  9.91886  4.54080 
P  17.80659  9.94164  4.55008 
P  13.28418  9.95056  4.68042 
P   8.72538  9.94991  4.55723 
P   2.59145  1.65495  4.54215 
P  16.42434  1.66254  4.53459 
P  11.81457  1.66838  4.57357 
P   7.23916  1.60694  4.52966 
P   2.61241  5.00208  4.58863 
P  16.32379  4.96667  4.49825 
P  11.81755  4.95667  4.58549 
P   7.27240  4.93357  4.48506 
P   2.77978  8.28128  4.44658 
P  16.34563  8.28303  4.58067 
P  11.74312  8.29949  4.52340 
P   7.15853  8.23744  4.62868 
P   2.60505 11.55362  4.54888 
P  16.21165 11.58897  4.56760 
P  11.75430 11.48141  4.55172 
P   7.24662 11.61244  4.53899 
P   1.87357  1.61986  6.67648 
P  15.55836  1.63939  6.55760 
P  10.97211  1.60189  6.70040 
P   6.42359  1.61889  6.69848 
P   1.80529  5.00517  6.62743 
P  15.56613  4.93928  6.66516 
P   6.49027  4.92445  6.66476 
P   1.95109  8.23356  6.62186 
P  15.51114  8.26232  6.67146 
P  11.05824  8.22590  6.59274 
P   6.55297  8.26501  6.70150 
P   1.86742 11.57409  6.66785 
P  15.52731 11.64120  6.72943 
P  10.96068 11.62933  6.65026 
P   6.38114 11.54992  6.65698 
62
step 5 = 
P   0.39340 13.22169  6.67217 
P  14.05141 13.22580  6.66915 
P   9.49944 13.22449  6.67058 
P   4.94835 13.22470  6.66832 
P   0.39516  3.30555  6.67091 
P  14.04983  3.30776  6.67094 
P   9.49699  3.30532  6.67123 
P   4.94610  3.30547  6.67027 
P   0.39368  6.61331  6.67057 
P  14.05312  6.61005  6.67087 
P   4.94528  6.61149  6.67029 
P   0.39394  9.91985  6.66852 
P  14.05118  9.91962  6.67108 
P   9.50179  9.91834  6.67081 
P   4.94804  9.92025  6.67140 
P   4.15972 13.22564  4.54928 
P  17.81353 13.22091  4.54931 
P  13.26272 13.22269  4.55135 
P   8.70942 13.22596  4.55097 
P   4.15875  3.30632  4.55060 
P  17.81529  3.30443  4.54837 
P  13.26211  3.30753  4.55091 
P   8.71018  3.30779  4.55071 
P   4.16018  6.61289  4.55393 
P  17.81551  6.61250  4.55158 
P  13.26326  6.61099  4.54953 
P   8.70894  6.61462  4.55038 
P   4.15825  9.91784  4.55166 
P  17.81774  9.91895  4.55030 
P  13.26011  9.91772  4.54920 
P   8.71296  9.91816  4.55069 
P   2.67224  1.65471  4.55052 
P  16.32442  1.65226  4.55210 
P  11.77590  1.65514  4.55237 
P   7.22365  1.65271  4.55094 
P   2.67141  4.95821  4.55004 
P  16.32594  4.95763  4.55017 
P  11.77545  4.95753  4.54826 
P   7.22263  4.95659  4.54898 
P   2.67009  8.26595  4.54849 
P  16.32801  8.26423  4.54948 
P  11.77328  8.26496  4.54994 
P   7.21964  8.26438  4.55103 
P   2.66794 11.57195  4.54676 
P  16.32732 11.57038  4.55057 
P  11.77406 11.57024  4.55098 
P   7.22298 11.57258  4.55200 
P   1.88211  1.65520  6.67314 
P  15.53845  1.65301  6.67120 
P  10.98719  1.65274  6.67157 
P   6.43626  1.65256  6.66929 
P   1.88387  4.95950  6.67041 
P  15.53996  4.95961  6.66910 
P   6.43760  4.95797  6.66979 
P   1.88202  8.26534  6.67083 
P  15.53961  8.26539  6.67208 
P  10.98700  8.26641  6.67068 
P   6.43618  8.26399  6.67067 
P   1.88220 11.57316  6.67167 
P  15.54021 11.57101  6.67210 
P  10.98720 11.57366  6.67026 
P   6.43244 11.57069  6.67219 
62
step 6 = 
P   0.40752 13.19911  6.62766 
P  14.05611 13.22677  6.66336 
P   9.52964 13.14974  6.68235 
P   4.90554 13.15715  6.68661 
P   0.42757  3.29256  6.63422 
P  13.90435  3.35785  6.62678 
P   9.43096  3.32911  6.62571 
P   5.03509  3.32773  6.69781 
P   0.43780  6.60022  6.68829 
P  14.14705  6.62915  6.73374 
P   4.85858  6.56505  6.57332 
P   0.40661  9.85377  6.66485 
P  14.07215  9.93827  6.68000 
P   9.52114 10.01308  6.64812 
P   4.97305  9.92434  6.67866 
P   4.20214 13.23837  4.52749 
P  17.80027 13.22184  4.52610 
P  13.26761 13.23635  4.66266 
P   8.74231 13.24651  4.60904 
P   4.12180  3.24804  4.56664 
P  17.75241  3.23474  4.51129 
P  13.35510  3.28408  4.44883 
P   8.66627  3.32734  4.52295 
P   4.17236  6.66933  4.49795 
P  17.93649  6.68320  4.58737 
P  13.18114  6.63108  4.56613 
P   8.72482  6.59953  4.59147 
P   4.12741  9.91682  4.56251 
P  17.82889  9.89626  4.55052 
P  13.23605  9.88487  4.41797 
P   8.70053  9.88641  4.54415 
P   2.75303  1.65447  4.55889 
P  16.22449  1.64199  4.56962 
P  11.73722  1.64190  4.53117 
P   7.20815  1.69848  4.57221 
P   2.73042  4.91434  4.51145 
P  16.32808  4.94859  4.60209 
P  11.73335  4.95839  4.51104 
P   7.17285  4.97960  4.61291 
P   2.56040  8.25062  4.65040 
P  16.31039  8.24544  4.51829 
P  11.80344  8.23044  4.57648 
P   7.28075  8.29133  4.47338 
P   2.73084 11.59028  4.54465 
P  16.44298 11.55180  4.53355 
P  11.79381 11.65907  4.55024 
P   7.19934 11.53272  4.56501 
P   1.89066  1.69054  6.66980 
P  15.51854  1.66663  6.78479 
P  11.00227  1.70358  6.64273 
P   6.44893  1.68624  6.64010 
P   1.96246  4.91383  6.71339 
P  15.51378  4.97994  6.67305 
P   6.38493  4.99149  6.67482 
P   1.81296  8.29712  6.71980 
P  15.56809  8.26847  6.67270 
P  10.91577  8.30691  6.74862 
P   6.31939  8.26297  6.63984 
P   1.89698 11.57222  6.67549 
P  15.55312 11.50081  6.61477 
P  11.01373 11.51798  6.69025 
P   6.48374 11.59145  6.68740 
62
step 7 = 
P   0.41624 13.18516  6.60016 
P  14.05901 13.22736  6.65978 
P   9.54831 13.10354  6.68962 
P   4.87908 13.11540  6.69791 
P   0.44760  3.28454  6.61155 
P  13.81445  3.38882  6.59950 
P   9.39015  3.34382  6.59758 
P   5.09010  3.34148  6.71483 
P   0.46507  6.59213  6.69923 
P  14.20511  6.64096  6.77259 
P   4.80500  6.53634  6.51339 
P   0.41444  9.81293  6.66259 
P  14.08511  9.94979  6.68551 
P   9.53310 10.07163  6.63410 
P   4.98851  9.92687  6.68314 
P   4.22835 13.24624  4.51402 
P  17.79207 13.22242  4.51176 
P  13.27064 13.24479  4.73144 
P   8.76263 13.25920  4.64492 
P   4.09896  3.21203  4.57655 
P  17.71355  3.19167  4.48838 
P  13.41258  3.26960  4.38574 
P   8.63913  3.33942  4.50579 
P   4.17989  6.70421  4.46336 
P  18.01126  6.72690  4.60949 
P  13.13039  6.64350  4.57638 
P   8.73464  6.59020  4.61687 
P   4.10835  9.91618  4.56922 
P  17.83579  9.88223  4.55066 
P  13.22118  9.86457  4.33688 
P   8.69285  9.86679  4.54011 
P   2.80296  1.65432  4.56406 
P  16.16273  1.63564  4.58044 
P  11.71331  1.63372  4.51806 
P   7.19857  1.72677  4.58536 
P   2.76689  4.88723  4.48760 
P  16.32940  4.94300  4.63418 
P  11.70733  4.95893  4.48803 
P   7.14209  4.99382  4.65241 
P   2.49260  8.24115  4.71338 
P  16.29950  8.23382  4.49901 
P  11.82207  8.20910  4.59288 
P   7.31852  8.30798  4.42539 
P   2.76971 11.60160  4.54334 
P  16.51446 11.54031  4.52302 
P  11.80602 11.71397  4.54978 
P   7.18473 11.50808  4.57305 
P   1.89595  1.71238  6.66774 
P  15.50624  1.67505  6.85500 
P  11.01159  1.73500  6.62491 
P   6.45676  1.70705  6.62206 
P   2.01103  4.88560  6.73996 
P  15.49760  4.99251  6.67548 
P   6.35237  5.01221  6.67793 
P   1.77027  8.31677  6.75006 
P  15.58569  8.27037  6.67308 
P  10.87174  8.33194  6.79679 
P   6.24721  8.26234  6.62078 
P   1.90612 11.57164  6.67785 
P  15.56109 11.45743  6.57933 
P  11.03012 11.48357  6.70260 
P   6.51544 11.60428  6.69680 
62
step 8 = 
P   0.41624 13.18516  6.60016 
P  14.05901 13.22736  6.65978 
P   9.54831 13.10354  6.68962 
P   4.87908 13.11540  6.69791 
P   0.44760  3.28454  6.61155 
P  13.81445  3.38882  6.59950 
P   9.39015  3.34382  6.59758 
P   5.09010  3.34148  6.71483 
P   0.46507  6.59213  6.69923 
P  14.20511  6.64096  6.77259 
P   4.80500  6.53634  6.51339 
P   0.41444  9.81293  6.66259 
P  14.08511  9.94979  6.68551 
P   9.53310 10.07163  6.63410 
P   4.98851  9.92687  6.68314 
P   4.22835 13.24624  4.51402 
P  17.79207 13.22242  4.51176 
P  13.27064 13.24479  4.73144 
P   8.76263 13.25920  4.64492 
P   4.09896  3.21203  4.57655 
P  17.71355  3.19167  4.48838 
P  13.41258  3.26960  4.38574 
P   8.63913  3.33942  4.50579 
P   4.17989  6.70421  4.46336 
P  18.01126  6.72690  4.60949 
P  13.13039  6.64350  4.57638 
P   8.73464  6.59020  4.61687 
P   4.10835  9.91618  4.56922 
P  17.83579  9.88223  4.55066 
P  13.22118  9.86457  4.33688 
P   8.69285  9.86679  4.54011 
P   2.80296  1.65432  4.56406 
P  16.16273  1.63564  4.58044 
P  11.71331  1.63372  4.51806 
P   7.19857  1.72677  4.58536 
P   2.76689  4.88723  4.48760 
P  16.32940  4.94300  4.63418 
P  11.70733  4.95893  4.48803 
P   7.14209  4.99382  4.65241 
P   2.49260  8.24115  4.71338 
P  16.29950  8.23382  4.49901 
P  11.82207  8.20910  4.59288 
P   7.31852  8.30798  4.42539 
P   2.76971 11.60160  4.54334 
P  16.51446 11.54031  4.52302 
P  11.80602 11.71397  4.54978 
P   7.18473 11.50808  4.57305 
P   1.89595  1.71238  6.66774 
P  15.50624  1.67505  6.85500 
P  11.01159  1.73500  6.62491 
P   6.45676  1.70705  6.62206 
P   2.01103  4.88560  6.73996 
P  15.49760  4.99251  6.67548 
P   6.35237  5.01221  6.67793 
P   1.77027  8.31677  6.75006 
P  15.58569  8.27037  6.67308 
P  10.87174  8.33194  6.79679 
P   6.24721  8.26234  6.62078 
P   1.90612 11.57164  6.67785 
P  15.56109 11.45743  6.57933 
P  11.03012 11.48357  6.70260 
P   6.51544 11.60428  6.69680 
62
step 9 = 
P   0.40752 13.19911  6.62766 
P  14.05611 13.22677  6.66336 
P   9.52964 13.14974  6.68235 
P   4.90554 13.15715  6.68661 
P   0.42757  3.29256  6.63422 
P  13.90435  3.35785  6.62678 
P   9.43096  3.32911  6.62571 
P   5.03509  3.32773  6.69781 
P   0.43780  6.60022  6.68829 
P  14.14705  6.62915  6.73374 
P   4.85858  6.56505  6.57332 
P   0.40661  9.85377  6.66485 
P  14.07215  9.93827  6.68000 
P   9.52114 10.01308  6.64812 
P   4.97305  9.92434  6.67866 
P   4.20214 13.23837  4.52749 
P  17.80027 13.22184  4.52610 
P  13.26761 13.23635  4.66266 
P   8.74231 13.24651  4.60904 
P   4.12180  3.24804  4.56664 
P  17.75241  3.23474  4.51129 
P  13.35510  3.28408  4.44883 
P   8.66627  3.32734  4.52295 
P   4.17236  6.66933  4.49795 
P  17.93649  6.68320  4.58737 
P  13.18114  6.63108  4.56613 
P   8.72482  6.59953  4.59147 
P   4.12741  9.91682  4.56251 
P  17.82889  9.89626  4.55052 
P  13.23605  9.88487  4.41797 
P   8.70053  9.88641  4.54415 
P   2.75303  1.65447  4.55889 
P  16.22449  1.64199  4.56962 
P  11.73722  1.64190  4.53117 
P   7.20815  1.69848  4.57221 
P   2.73042  4.91434  4.51145 
P  16.32808  4.94859  4.60209 
P  11.73335  4.95839  4.51104 
P   7.17285  4.97960  4.61291 
P   2.56040  8.25062  4.65040 
P  16.31039  8.24544  4.51829 
P  11.80344  8.23044  4.57648 
P   7.28075  8.29133  4.47338 
P   2.73084 11.59028  4.54465 
P  16.44298 11.55180  4.53355 
P  11.79381 11.65907  4.55024 
P   7.19934 11.53272  4.56501 
P   1.89066  1.69054  6.66980 
P  15.51854  1.66663  6.78479 
P  11.00227  1.70358  6.64273 
P   6.44893  1.68624  6.64010 
P   1.96246  4.91383  6.71339 
P  15.51378  4.97994  6.67305 
P   6.38493  4.99149  6.67482 
P   1.81296  8.29712  6.71980 
P  15.56809  8.26847  6.67270 
P  10.91577  8.30691  6.74862 
P   6.31939  8.26297  6.63984 
P   1.89698 11.57222  6.67549 
P  15.55312 11.50081  6.61477 
P  11.01373 11.51798  6.69025 
P   6.48374 11.59145  6.68740 
62
step 10 = 
P   0.39340 13.22169  6.67217 
P  14.05141 13.22580  6.66915 
P   9.49944 13.22449  6.67058 
P   4.94835 13.22470  6.66832 
P   0.39516  3.30555  6.67091 
P  14.04983  3.30776  6.67094 
P   9.49699  3.30532  6.67123 
P   4.94610  3.30547  6.67027 
P   0.39368  6.61331  6.67057 
P  14.05312  6.61005  6.67087 
P   4.94528  6.61149  6.67029 
P   0.39394  9.91985  6.66852 
P  14.05118  9.91962  6.67108 
P   9.50179  9.91834  6.67081 
P   4.94804  9.92025  6.67140 
P   4.15972 13.22564  4.54928 
P  17.81353 13.22091  4.54931 
P  13.26272 13.22269  4.55135 
P   8.70942 13.22596  4.55097 
P   4.15875  3.30632  4.55060 
P  17.81529  3.30443  4.54837 
P  13.26211  3.30753  4.55091 
P   8.71018  3.30779  4.55071 
P   4.16018  6.61289  4.55393 
P  17.81551  6.61250  4.55158 
P  13.26326  6.61099  4.54953 
P   8.70894  6.61462  4.55038 
P   4.15825  9.91784  4.55166 
P  17.81774  9.91895  4.55030 
P  13.26011  9.91772  4.54920 
P   8.71296  9.91816  4.55069 
P   2.67224  1.65471  4.55052 
P  16.32442  1.65226  4.55210 
P  11.77590  1.65514  4.55237 
P   7.22365  1.65271  4.55094 
P   2.67141  4.95821  4.55004 
P  16.32594  4.95763  4.55017 
P  11.77545  4.95753  4.54826 
P   7.22263  4.95659  4.54898 
P   2.67009  8.26595  4.54849 
P  16.32801  8.26423  4.54948 
P  11.77328  8.26496  4.54994 
P   7.21964  8.26438  4.55103 
P   2.66794 11.57195  4.54676 
P  16.32732 11.57038  4.55057 
P  11.77406 11.57024  4.55098 
P   7.22298 11.57258  4.55200 
P   1.88211  1.65520  6.67314 
P  15.53845  1.65301  6.67120 
P  10.98719  1.65274  6.67157 
P   6.43626  1.65256  6.66929 
P   1.88387  4.95950  6.67041 
P  15.53996  4.95961  6.66910 
P   6.43760  4.95797  6.66979 
P   1.88202  8.26534  6.67083 
P  15.53961  8.26539  6.67208 
P  10.98700  8.26641  6.67068 
P   6.43618  8.26399  6.67067 
P   1.88220 11.57316  6.67167 
P  15.54021 11.57101  6.67210 
P  10.98720 11.57366  6.67026 
P   6.43244 11.57069  6.67219 
62
step 11 = 
P   0.37929 13.24426  6.71667 
P  14.04672 13.22484  6.67493 
P   9.46924 13.29924  6.65882 
P   4.99116 13.29225  6.65004 
P   0.36275  3.31853  6.70760 
P  14.19530  3.25766  6.71509 
P   9.56303  3.28152  6.71675 
P   4.85710  3.28322  6.64274 
P   0.34955  6.62640  6.65286 
P  13.95919  6.59096  6.60801 
P   5.03197  6.65794  6.76725 
P   0.38127  9.98594  6.67218 
P  14.03021  9.90098  6.66216 
P   9.48245  9.82359  6.69349 
P   4.92302  9.91616  6.66414 
P   4.11731 13.21291  4.57107 
P  17.82679 13.21998  4.57251 
P  13.25782 13.20903  4.44005 
P   8.67654 13.20542  4.49290 
P   4.19569  3.36459  4.53456 
P  17.87817  3.37413  4.58544 
P  13.16911  3.33097  4.65298 
P   8.75409  3.28823  4.57847 
P   4.14800  6.55645  4.60990 
P  17.69453  6.54180  4.51579 
P  13.34539  6.59089  4.53293 
P   8.69305  6.62972  4.50928 
P   4.18910  9.91886  4.54080 
P  17.80659  9.94164  4.55008 
P  13.28418  9.95056  4.68042 
P   8.72538  9.94991  4.55723 
P   2.59145  1.65495  4.54215 
P  16.42434  1.66254  4.53459 
P  11.81457  1.66838  4.57357 
P   7.23916  1.60694  4.52966 
P   2.61241  5.00208  4.58863 
P  16.32379  4.96667  4.49825 
P  11.81755  4.95667  4.58549 
P   7.27240  4.93357  4.48506 
P   2.77978  8.28128  4.44658 
P  16.34563  8.28303  4.58067 
P  11.74312  8.29949  4.52340 
P   7.15853  8.23744  4.62868 
P   2.60505 11.55362  4.54888 
P  16.21165 11.58897  4.56760 
P  11.75430 11.48141  4.55172 
P   7.24662 11.61244  4.53899 
P   1.87357  1.61986  6.67648 
P  15.55836  1.63939  6.55760 
P  10.97211  1.60189  6.70040 
P   6.42359  1.61889  6.69848 
P   1.80529  5.00517  6.62743 
P  15.56613  4.93928  6.66516 
P   6.49027  4.92445  6.66476 
P   1.95109  8.23356  6.62186 
P  15.51114  8.26232  6.67146 
P  11.05824  8.22590  6.59274 
P   6.55297  8.26501  6.70150 
P   1.86742 11.57409  6.66785 
P  15.52731 11.64120  6.72943 
P  10.96068 11.62933  6.65026 
P   6.38114 11.54992  6.65698 
62
step 12 = 
P   0.37057 13.25821  6.74417 
P  14.04382 13.22424  6.67851 
P   9.45057 13.34544  6.65155 
P   5.01762 13.33399  6.63873 
P   0.34272  3.32656  6.73028 
P  14.28520  3.22669  6.74238 
P   9.60384  3.26681  6.74488 
P   4.80210  3.26947  6.62572 
P   0.32228  6.63449  6.64192 
P  13.90114  6.57915  6.56916 
P   5.08556  6.68664  6.82718 
P   0.37344 10.02678  6.67444 
P  14.01725  9.88946  6.65665 
P   9.47049  9.76504  6.70751 
P   4.90756  9.91364  6.65966 
P   4.09109 13.20505  4.58454 
P  17.83498 13.21941  4.58685 
P  13.25480 13.20059  4.37126 
P   8.65621 13.19272  4.45702 
P   4.21853  3.40061  4.52465 
P  17.91703  3.41720  4.60835 
P  13.11164  3.34546  4.71607 
P   8.78122  3.27615  4.59563 
P   4.14047  6.52157  4.64450 
P  17.61976  6.49810  4.49367 
P  13.39614  6.57848  4.52267 
P   8.68323  6.63905  4.48388 
P   4.20816  9.91949  4.53409 
P  17.79970  9.95567  4.54994 
P  13.29905  9.97086  4.76151 
P   8.73306  9.96953  4.56127 
P   2.54152  1.65510  4.53698 
P  16.48610  1.66889  4.52376 
P  11.83848  1.67656  4.58667 
P   7.24874  1.57865  4.51651 
P   2.57594  5.02920  4.61248 
P  16.32247  4.97226  4.46616 
P  11.84357  4.95614  4.60850 
P   7.30316  4.91935  4.44556 
P   2.84757  8.29076  4.38360 
P  16.35652  8.29464  4.59994 
P  11.72448  8.32082  4.50700 
P   7.12076  8.22079  4.67667 
P   2.56617 11.54230  4.55019 
P  16.14017 11.60046  4.57812 
P  11.74210 11.42651  4.55218 
P   7.26124 11.63708  4.53095 
P   1.86828  1.59802  6.67855 
P  15.57066  1.63097  6.48740 
P  10.96279  1.57047  6.71822 
P   6.41576  1.59808  6.71652 
P   1.75672  5.03340  6.60087 
P  15.58231  4.92672  6.66272 
P   6.52283  4.90373  6.66165 
P   1.99378  8.21391  6.59160 
P  15.49354  8.26041  6.67108 
P  11.10226  8.20087  6.54456 
P   6.62515  8.26563  6.72056 
P   1.85829 11.57467  6.66549 
P  15.51934 11.68459  6.76487 
P  10.94429 11.66374  6.63791 
P   6.34943 11.53709  6.64759 
62
step 13 = 
P   0.37057 13.25821  6.74417 
P  14.04382 13.22424  6.67851 
P   9.45057 13.34544  6.65155 
P   5.01762 13.33399  6.63873 
P   0.34272  3.32656  6.73028 
P  14.28520  3.22669  6.74238 
P   9.60384  3.26681  6.74488 
P   4.80210  3.26947  6.62572 
P   0.32228  6.63449  6.64192 
P  13.90114  6.57915  6.56916 
P   5.08556  6.68664  6.82718 
P   0.37344 10.02678  6.67444 
P  14.01725  9.88946  6.65665 
P   9.47049  9.76504  6.70751 
P   4.90756  9.91364  6.65966 
P   4.09109 13.20505  4.58454 
P  17.83498 13.21941  4.58685 
P  13.25480 13.20059  4.37126 
P   8.65621 13.19272  4.45702 
P   4.21853  3.40061  4.52465 
P  17.91703  3.41720  4.60835 
P  13.11164  3.34546  4.71607 
P   8.78122  3.27615  4.59563 
P   4.14047  6.52157  4.64450 
P  17.61976  6.49810  4.49367 
P  13.39614  6.57848  4.52267 
P   8.68323  6.63905  4.48388 
P   4.20816  9.91949  4.53409 
P  17.79970  9.95567  4.54994 
P  13.29905  9.97086  4.76151 
P   8.73306  9.96953  4.56127 
P   2.54152  1.65510  4.53698 
P  16.48610  1.66889  4.52376 
P  11.83848  1.67656  4.58667 
P   7.24874  1.57865  4.51651 
P   2.57594  5.02920  4.61248 
P  16.32247  4.97226  4.46616 
P  11.84357  4.95614  4.60850 
P   7.30316  4.91935  4.44556 
P   2.84757  8.29076  4.38360 
P  16.35652  8.29464  4.59994 
P  11.72448  8.32082  4.50700 
P   7.12076  8.22079  4.67667 
P   2.56617 11.54230  4.55019 
P  16.14017 11.60046  4.57812 
P  11.74210 11.42651  4.55218 
P   7.26124 11.63708  4.53095 
P   1.86828  1.59802  6.67855 
P  15.57066  1.63097  6.48740 
P  10.96279  1.57047  6.71822 
P   6.41576  1.59808  6.71652 
P   1.75672  5.03340  6.60087 
P  15.58231  4.92672  6.66272 
P   6.52283  4.90373  6.66165 
P   1.99378  8.21391  6.59160 
P  15.49354  8.26041  6.67108 
P  11.10226  8.20087  6.54456 
P   6.62515  8.26563  6.72056 
P   1.85829 11.57467  6.66549 
P  15.51934 11.68459  6.76487 
P  10.94429 11.66374  6.63791 
P   6.34943 11.53709  6.64759 
62
step 14 = 
P   0.37929 13.24426  6.71667 
P  14.04672 13.22484  6.67493 
P   9.46924 13.29924  6.65882 
P   4.99116 13.29225  6.65004 
P   0.36275  3.31853  6.70760 
P  14.19530  3.25766  6.71509 
P   9.56303  3.28152  6.71675 
P   4.85710  3.28322  6.64274 
P   0.34955  6.62640  6.65286 
P  13.95919  6.59096  6.60801 
P   5.03197  6.65794  6.76725 
P   0.38127  9.98594  6.67218 
P  14.03021  9.90098  6.66216 
P   9.48245  9.82359  6.69349 
P   4.92302  9.91616  6.66414 
P   4.11731 13.21291  4.57107 
P  17.82679 13.21998  4.57251 
P  13.25782 13.20903  4.44005 
P   8.67654 13.20542  4.49290 
P   4.19569  3.36459  4.53456 
P  17.87817  3.37413  4.58544 
P  13.16911  3.33097  4.65298 
P   8.75409  3.28823  4.57847 
P   4.14800  6.55645  4.60990 
P  17.69453  6.54180  4.51579 
P  13.34539  6.59089  4.53293 
P   8.69305  6.62972  4.50928 
P   4.18910  9.91886  4.54080 
P  17.80659  9.94164  4.55008 
P  13.28418  9.95056  4.68042 
P   8.72538  9.94991  4.55723 
P   2.59145  1.65495  4.54215 
P  16.42434  1.66254  4.53459 
P  11.81457  1.66838  4.57357 
P   7.23916  1.60694  4.52966 
P   2.61241  5.00208  4.58863 
P  16.32379  4.96667  4.49825 
P  11.81755  4.95667  4.58549 
P   7.27240  4.93357  4.48506 
P   2.77978  8.28128  4.44658 
P  16.34563  8.28303  4.58067 
P  11.74312  8.29949  4.52340 
P   7.15853  8.23744  4.62868 
P   2.60505 11.55362  4.54888 
P  16.21165 11.58897  4.56760 
P  11.75430 11.48141  4.55172 
P   7.24662 11.61244  4.53899 
P   1.87357  1.61986  6.67648 
P  15.55836  1.63939  6.55760 
P  10.97211  1.60189  6.70040 
P   6.42359  1.61889  6.69848 
P   1.80529  5.00517  6.62743 
P  15.56613  4.93928  6.66516 
P   6.49027  4.92445  6.66476 
P   1.95109  8.23356  6.62186 
P  15.51114  8.26232  6.67146 
P  11.05824  8.22590  6.59274 
P   6.55297  8.26501  6.70150 
P   1.86742 11.57409  6.66785 
P  15.52731 11.64120  6.72943 
P  10.96068 11.62933  6.65026 
P   6.38114 11.54992  6.65698 
62
step 15 = 
P   0.39340 13.22169  6.67217 
P  14.05141 13.22580  6.66915 
P   9.49944 13.22449  6.67058 
P   4.94835 13.22470  6.66832 
P   0.39516  3.30555  6.67091 
P  14.04983  3.30776  6.67094 
P   9.49699  3.30532  6.67123 
P   4.94610  3.30547  6.67027 
P   0.39368  6.61331  6.67057 
P  14.05312  6.61005  6.67087 
P   4.94528  6.61149  6.67029 
P   0.39394  9.91985  6.66852 
P  14.05118  9.91962  6.67108 
P   9.50179  9.91834  6.67081 
P   4.94804  9.92025  6.67140 
P   4.15972 13.22564  4.54928 
P  17.81353 13.22091  4.54931 
P  13.26272 13.22269  4.55135 
P   8.70942 13.22596  4.55097 
P   4.15875  3.30632  4.55060 
P  17.81529  3.30443  4.54837 
P  13.26211  3.30753  4.55091 
P   8.71018  3.30779  4.55071 
P   4.16018  6.61289  4.55393 
P  17.81551  6.61250  4.55158 
P  13.26326  6.61099  4.54953 
P   8.70894  6.61462  4.55038 
P   4.15825  9.91784  4.55166 
P  17.81774  9.91895  4.55030 
P  13.26011  9.91772  4.54920 