62
step 0 = 
P   0.39340 13.22169  6.67217 
P  14.05141 13.22580  6.66915 
P   9.49944 13.22449  6.67058 
P   4.94835 13.22470  6.66832 
P   0.39516  3.30555  6.67091 
P  14.04983  3.30776  6.67094 
P   9.49699  3.30532  6.67123 
P   4.94610  3.30547  6.67027 
P   0.39368  6.61331  6.67057 
P  14.05312  6.61005  6.67087 
P   4.94528  6.61149  6.67029 
P   0.39394  9.91985  6.66852 
P  14.05118  9.91962  6.67108 
P   9.50179  9.91834  6.67081 
P   4.94804  9.92025  6.67140 
P   4.15972 13.22564  4.54928 
P  17.81353 13.22091  4.54931 
P  13.26272 13.22269  4.55135 
P   8.70942 13.22596  4.55097 
P   4.15875  3.30632  4.55060 
P  17.81529  3.30443  4.54837 
P  13.26211  3.30753  4.55091 
P   8.71018  3.30779  4.55071 
P   4.16018  6.61289  4.55393 
P  17.81551  6.61250  4.55158 
P  13.26326  6.61099  4.54953 
P   8.70894  6.61462  4.55038 
P   4.15825  9.91784  4.55166 
P  17.81774  9.91895  4.55030 
P  13.26011  9.91772  4.54920 
P   8.71296  9.91816  4.55069 
P   2.67224  1.65471  4.55052 
P  16.32442  1.65226  4.55210 
P  11.77590  1.65514  4.55237 
P   7.22365  1.65271  4.55094 
P   2.67141  4.95821  4.55004 
P  16.32594  4.95763  4.55017 
P  11.77545  4.95753  4.54826 
P   7.22263  4.95659  4.54898 
P   2.67009  8.26595  4.54849 
P  16.32801  8.26423  4.54948 
P  11.77328  8.26496  4.54994 
P   7.21964  8.26438  4.55103 
P   2.66794 11.57195  4.54676 
P  16.32732 11.57038  4.55057 
P  11.77406 11.57024  4.55098 
P   7.22298 11.57258  4.55200 
P   1.88211  1.65520  6.67314 
P  15.53845  1.65301  6.67120 
P  10.98719  1.65274  6.67157 
P   6.43626  1.65256  6.66929 
P   1.88387  4.95950  6.67041 
P  15.53996  4.95961  6.66910 
P   6.43760  4.95797  6.66979 
P   1.88202  8.26534  6.67083 
P  15.53961  8.26539  6.67208 
P  10.98700  8.26641  6.67068 
P   6.43618  8.26399  6.67067 
P   1.88220 11.57316  6.67167 
P  15.54021 11.57101  6.67210 
P  10.98720 11.57366  6.67026 
P   6.43244 11.57069  6.67219 
62
step 1 = 
P   0.37457 13.14185  6.58691 
P  13.99782 13.18397  6.66266 
P   9.51698 13.20911  6.68343 
P   4.90180 13.14199  6.67523 
P   0.48933  3.26740  6.74029 
P  14.10641  3.33591  6.67518 
P   9.51853  3.30265  6.69572 
P   4.93894  3.28896  6.67099 
P   0.38364  6.55542  6.79373 
P  13.99785  6.67372  6.68342 
P   4.97473  6.54085  6.71025 
P   0.31740  9.97805  6.70217 
P  13.94732  9.90708  6.67963 
P   9.53018  9.92508  6.68256 
P   4.99638 10.03277  6.66916 
P   4.13443 13.22814  4.53995 
P  17.79794 13.18020  4.60732 
P  13.31686 13.19816  4.55419 
P   8.69267 13.22970  4.53873 
P   4.18406  3.32591  4.53571 
P  17.79228  3.32200  4.50969 
P  13.25444  3.29224  4.56086 
P   8.65960  3.32515  4.52354 
P   4.22838  6.62137  4.47286 
P  17.76970  6.60704  4.44789 
P  13.28834  6.62172  4.51350 
P   8.69101  6.53272  4.59358 
P   4.14295  9.96448  4.54566 
P  17.82005  9.87500  4.51970 
P  13.25943 10.01408  4.51852 
P   8.71045  9.98710  4.57087 
P   2.69352  1.59093  4.58272 
P  16.29360  1.67581  4.52070 
P  11.75181  1.72260  4.53517 
P   7.26951  1.64533  4.59296 
P   2.64904  4.95539  4.67013 
P  16.39788  4.98252  4.57561 
P  11.74902  4.91744  4.53593 
P   7.28596  4.98198  4.54337 
P   2.62168  8.27021  4.68915 
P  16.34806  8.26317  4.51946 
P  11.73372  8.21243  4.59732 
P   7.19009  8.24757  4.51113 
P   2.71921 11.55892  4.52393 
P  16.37120 11.61693  4.52484 
P  11.80875 11.52183  4.55084 
P   7.25082 11.56091  4.54885 
P   1.83523  1.80586  6.65946 
P  15.55469  1.72307  6.69681 
P  10.97339  1.65375  6.67343 
P   6.44796  1.71163  6.61236 
P   1.82580  4.93985  6.55414 
P  15.54277  4.82859  6.66870 
P   6.41156  5.04528  6.65048 
P   1.95833  8.25774  6.52327 
P  15.59704  8.24945  6.72046 
P  10.97811  8.30018  6.61844 
P   6.43485  8.21122  6.69350 
P   1.89679 11.58789  6.72779 
P  15.58654 11.59314  6.71107 
P  10.96149 11.55337  6.66883 
P   6.35078 11.51351  6.66875 
62
step 2 = 
P   0.36292 13.09251  6.53422 
P  13.96469 13.15812  6.65864 
P   9.52782 13.19960  6.69137 
P   4.87303 13.09087  6.67950 
P   0.54754  3.24383  6.78316 
P  14.14138  3.35330  6.67781 
P   9.53184  3.30101  6.71086 
P   4.93451  3.27875  6.67144 
P   0.37743  6.51965  6.86985 
P  13.96370  6.71306  6.69117 
P   4.99293  6.49719  6.73495 
P   0.27010 10.01402  6.72297 
P  13.88313  9.89933  6.68492 
P   9.54772  9.92925  6.68982 
P   5.02626 10.10232  6.66778 
P   4.11880 13.22968  4.53419 
P  17.78831 13.15504  4.64317 
P  13.35033 13.18300  4.55594 
P   8.68231 13.23202  4.53117 
P   4.19971  3.33802  4.52650 
P  17.77805  3.33285  4.48579 
P  13.24970  3.28279  4.56700 
P   8.62834  3.33589  4.50675 
P   4.27052  6.62661  4.42276 
P  17.74139  6.60366  4.38381 
P  13.30383  6.62835  4.49124 
P   8.67993  6.48211  4.62029 
P   4.13349  9.99330  4.54195 
P  17.82148  9.84784  4.50078 
P  13.25900 10.07363  4.49956 
P   8.70890 10.02971  4.58334 
P   2.70667  1.55152  4.60261 
P  16.27456  1.69036  4.50129 
P  11.73693  1.76429  4.52454 
P   7.29785  1.64078  4.61893 
P   2.63521  4.95365  4.74435 
P  16.44234  4.99790  4.59134 
P  11.73269  4.89266  4.52831 
P   7.32510  4.99767  4.53990 
P   2.59176  8.27284  4.77608 
P  16.36045  8.26251  4.50090 
P  11.70927  8.17996  4.62660 
P   7.17182  8.23718  4.48647 
P   2.75090 11.55086  4.50981 
P  16.39831 11.64570  4.50893 
P  11.83019 11.49191  4.55075 
P   7.26802 11.55369  4.54690 
P   1.80625  1.89897  6.65101 
P  15.56473  1.76636  6.71264 
P  10.96486  1.65438  6.67459 
P   6.45520  1.74814  6.57717 
P   1.78991  4.92770  6.48228 
P  15.54451  4.74762  6.66845 
P   6.39546  5.09924  6.63854 
P   2.00549  8.25304  6.43207 
P  15.63253  8.23960  6.75036 
P  10.97261  8.32106  6.58616 
P   6.43403  8.17861  6.70761 
P   1.90580 11.59700  6.76248 
P  15.61517 11.60681  6.73516 
P  10.94559 11.54083  6.66794 
P   6.30031 11.47817  6.66662 
62
step 3 = 
P   0.36292 13.09251  6.53422 
P  13.96469 13.15812  6.65864 
P   9.52782 13.19960  6.69137 
P   4.87303 13.09087  6.67950 
P   0.54754  3.24383  6.78316 
P  14.14138  3.35330  6.67781 
P   9.53184  3.30101  6.71086 
P   4.93451  3.27875  6.67144 
P   0.37743  6.51965  6.86985 
P  13.96370  6.71306  6.69117 
P   4.99293  6.49719  6.73495 
P   0.27010 10.01402  6.72297 
P  13.88313  9.89933  6.68492 
P   9.54772  9.92925  6.68982 
P   5.02626 10.10232  6.66778 
P   4.11880 13.22968  4.53419 
P  17.78831 13.15504  4.64317 
P  13.35033 13.18300  4.55594 
P   8.68231 13.23202  4.53117 
P   4.19971  3.33802  4.52650 
P  17.77805  3.33285  4.48579 
P  13.24970  3.28279  4.56700 
P   8.62834  3.33589  4.50675 
P   4.27052  6.62661  4.42276 
P  17.74139  6.60366  4.38381 
P  13.30383  6.62835  4.49124 
P   8.67993  6.48211  4.62029 
P   4.13349  9.99330  4.54195 
P  17.82148  9.84784  4.50078 
P  13.25900 10.07363  4.49956 
P   8.70890 10.02971  4.58334 
P   2.70667  1.55152  4.60261 
P  16.27456  1.69036  4.50129 
P  11.73693  1.76429  4.52454 
P   7.29785  1.64078  4.61893 
P   2.63521  4.95365  4.74435 
P  16.44234  4.99790  4.59134 
P  11.73269  4.89266  4.52831 
P   7.32510  4.99767  4.53990 
P   2.59176  8.27284  4.77608 
P  16.36045  8.26251  4.50090 
P  11.70927  8.17996  4.62660 
P   7.17182  8.23718  4.48647 
P   2.75090 11.55086  4.50981 
P  16.39831 11.64570  4.50893 
P  11.83019 11.49191  4.55075 
P   7.26802 11.55369  4.54690 
P   1.80625  1.89897  6.65101 
P  15.56473  1.76636  6.71264 
P  10.96486  1.65438  6.67459 
P   6.45520  1.74814  6.57717 
P   1.78991  4.92770  6.48228 
P  15.54451  4.74762  6.66845 
P   6.39546  5.09924  6.63854 
P   2.00549  8.25304  6.43207 
P  15.63253  8.23960  6.75036 
P  10.97261  8.32106  6.58616 
P   6.43403  8.17861  6.70761 
P   1.90580 11.59700  6.76248 
P  15.61517 11.60681  6.73516 
P  10.94559 11.54083  6.66794 
P   6.30031 11.47817  6.66662 
62
step 4 = 
P   0.37457 13.14185  6.58691 
P  13.99782 13.18397  6.66266 
P   9.51698 13.20911  6.68343 
P   4.90180 13.14199  6.67523 
P   0.48933  3.26740  6.74029 
P  14.10641  3.33591  6.67518 
P   9.51853  3.30265  6.69572 
P   4.93894  3.28896  6.67099 
P   0.38364  6.55542  6.79373 
P  13.99785  6.67372  6.68342 
P   4.97473  6.54085  6.71025 
P   0.31740  9.97805  6.70217 
P  13.94732  9.90708  6.67963 
P   9.53018  9.92508  6.68256 
P   4.99638 10.03277  6.66916 
P   4.13443 13.22814  4.53995 
P  17.79794 13.18020  4.60732 
P  13.31686 13.19816  4.55419 
P   8.69267 13.22970  4.53873 
P   4.18406  3.32591  4.53571 
P  17.79228  3.32200  4.50969 
P  13.25444  3.29224  4.56086 
P   8.65960  3.32515  4.52354 
P   4.22838  6.62137  4.47286 
P  17.76970  6.60704  4.44789 
P  13.28834  6.62172  4.51350 
P   8.69101  6.53272  4.59358 
P   4.14295  9.96448  4.54566 
P  17.82005  9.87500  4.51970 
P  13.25943 10.01408  4.51852 
P   8.71045  9.98710  4.57087 
P   2.69352  1.59093  4.58272 
P  16.29360  1.67581  4.52070 
P  11.75181  1.72260  4.53517 
P   7.26951  1.64533  4.59296 
P   2.64904  4.95539  4.67013 
P  16.39788  4.98252  4.57561 
P  11.74902  4.91744  4.53593 
P   7.28596  4.98198  4.54337 
P   2.62168  8.27021  4.68915 
P  16.34806  8.26317  4.51946 
P  11.73372  8.21243  4.59732 
P   7.19009  8.24757  4.51113 
P   2.71921 11.55892  4.52393 
P  16.37120 11.61693  4.52484 
P  11.80875 11.52183  4.55084 
P   7.25082 11.56091  4.54885 
P   1.83523  1.80586  6.65946 
P  15.55469  1.72307  6.69681 
P  10.97339  1.65375  6.67343 
P   6.44796  1.71163  6.61236 
P   1.82580  4.93985  6.55414 
P  15.54277  4.82859  6.66870 
P   6.41156  5.04528  6.65048 
P   1.95833  8.25774  6.52327 
P  15.59704  8.24945  6.72046 
P  10.97811  8.30018  6.61844 
P   6.43485  8.21122  6.69350 
P   1.89679 11.58789  6.72779 
P  15.58654 11.59314  6.71107 
P  10.96149 11.55337  6.66883 
P   6.35078 11.51351  6.66875 
62
step 5 = 
P   0.39340 13.22169  6.67217 
P  14.05141 13.22580  6.66915 
P   9.49944 13.22449  6.67058 
P   4.94835 13.22470  6.66832 
P   0.39516  3.30555  6.67091 
P  14.04983  3.30776  6.67094 
P   9.49699  3.30532  6.67123 
P   4.94610  3.30547  6.67027 
P   0.39368  6.61331  6.67057 
P  14.05312  6.61005  6.67087 
P   4.94528  6.61149  6.67029 
P   0.39394  9.91985  6.66852 
P  14.05118  9.91962  6.67108 
P   9.50179  9.91834  6.67081 
P   4.94804  9.92025  6.67140 
P   4.15972 13.22564  4.54928 
P  17.81353 13.22091  4.54931 
P  13.26272 13.22269  4.55135 
P   8.70942 13.22596  4.55097 
P   4.15875  3.30632  4.55060 
P  17.81529  3.30443  4.54837 
P  13.26211  3.30753  4.55091 
P   8.71018  3.30779  4.55071 
P   4.16018  6.61289  4.55393 
P  17.81551  6.61250  4.55158 
P  13.26326  6.61099  4.54953 
P   8.70894  6.61462  4.55038 
P   4.15825  9.91784  4.55166 
P  17.81774  9.91895  4.55030 
P  13.26011  9.91772  4.54920 
P   8.71296  9.91816  4.55069 
P   2.67224  1.65471  4.55052 
P  16.32442  1.65226  4.55210 
P  11.77590  1.65514  4.55237 
P   7.22365  1.65271  4.55094 
P   2.67141  4.95821  4.55004 
P  16.32594  4.95763  4.55017 
P  11.77545  4.95753  4.54826 
P   7.22263  4.95659  4.54898 
P   2.67009  8.26595  4.54849 
P  16.32801  8.26423  4.54948 
P  11.77328  8.26496  4.54994 
P   7.21964  8.26438  4.55103 
P   2.66794 11.57195  4.54676 
P  16.32732 11.57038  4.55057 
P  11.77406 11.57024  4.55098 
P   7.22298 11.57258  4.55200 
P   1.88211  1.65520  6.67314 
P  15.53845  1.65301  6.67120 
P  10.98719  1.65274  6.67157 
P   6.43626  1.65256  6.66929 
P   1.88387  4.95950  6.67041 
P  15.53996  4.95961  6.66910 
P   6.43760  4.95797  6.66979 
P   1.88202  8.26534  6.67083 
P  15.53961  8.26539  6.67208 
P  10.98700  8.26641  6.67068 
P   6.43618  8.26399  6.67067 
P   1.88220 11.57316  6.67167 
P  15.54021 11.57101  6.67210 
P  10.98720 11.57366  6.67026 
P   6.43244 11.57069  6.67219 
62
step 6 = 
P   0.41224 13.30152  6.75742 
P  14.10501 13.26763  6.67564 
P   9.48190 13.23987  6.65774 
P   4.99490 13.30741  6.66142 
P   0.30098  3.34370  6.60154 
P  13.99324  3.27960  6.66669 
P   9.47546  3.30798  6.64674 
P   4.95326  3.32199  6.66955 
P   0.40372  6.67119  6.54742 
P  14.10839  6.54639  6.65833 
P   4.91583  6.68213  6.63032 
P   0.47047  9.86166  6.63486 
P  14.15504  9.93217  6.66253 
P   9.47341  9.91159  6.65906 
P   4.89970  9.80773  6.67364 
P   4.18502 13.22315  4.55861 
P  17.82911 13.26162  4.49130 
P  13.20857 13.24722  4.54852 
P   8.72618 13.22222  4.56320 
P   4.13343  3.28672  4.56549 
P  17.83831  3.28687  4.58704 
P  13.26978  3.32281  4.54096 
P   8.76075  3.29042  4.57788 
P   4.09199  6.60441  4.63499 
P  17.86132  6.61797  4.65527 
P  13.23819  6.60025  4.58556 
P   8.72686  6.69652  4.50717 
P   4.17355  9.87120  4.55766 
P  17.81543  9.96289  4.58091 
P  13.26080  9.82135  4.57987 
P   8.71546  9.84922  4.53051 
P   2.65097  1.71848  4.51833 
P  16.35523  1.62872  4.58351 
P  11.79998  1.58768  4.56957 
P   7.17780  1.66008  4.50891 
P   2.69379  4.96104  4.42995 
P  16.25399  4.93274  4.52472 
P  11.80188  4.99763  4.56059 
P   7.15929  4.93120  4.55460 
P   2.71849  8.26169  4.40783 
P  16.30796  8.26529  4.57950 
P  11.81284  8.31750  4.50256 
P   7.24919  8.28120  4.59093 
P   2.61667 11.58499  4.56960 
P  16.28344 11.52384  4.57631 
P  11.73937 11.61865  4.55112 
P   7.19515 11.58425  4.55516 
P   1.92900  1.50454  6.68682 
P  15.52221  1.58296  6.64559 
P  11.00099  1.65172  6.66970 
P   6.42456  1.59350  6.72622 
P   1.94195  4.97916  6.78668 
P  15.53715  5.09063  6.66951 
P   6.46364  4.87066  6.68911 
P   1.80571  8.27294  6.81839 
P  15.48219  8.28133  6.62370 
P  10.99590  8.23263  6.72292 
P   6.43751  8.31676  6.64784 
P   1.86762 11.55842  6.61555 
P  15.49389 11.54888  6.63313 
P  11.01292 11.59395  6.67168 
P   6.51410 11.62787  6.67564 
62
step 7 = 
P   0.42388 13.35086  6.81012 
P  14.13813 13.29349  6.67965 
P   9.47105 13.24937  6.64980 
P   5.02367 13.35853  6.65715 
P   0.24278  3.36727  6.55866 
P  13.95827  3.26221  6.66407 
P   9.46215  3.30962  6.63161 
P   4.95769  3.33220  6.66911 
P   0.40992  6.70697  6.47130 
P  14.14255  6.50704  6.65058 
P   4.89763  6.72579  6.60562 
P   0.51777  9.82569  6.61407 
P  14.21922  9.93992  6.65724 
P   9.45587  9.90743  6.65180 
P   4.86982  9.73818  6.67502 
P   4.20065 13.22160  4.56438 
P  17.83874 13.28678  4.45544 
P  13.17511 13.26238  4.54676 
P   8.73653 13.21990  4.57076 
P   4.11778  3.27461  4.57470 
P  17.85253  3.27601  4.61094 
P  13.27452  3.33226  4.53481 
P   8.79201  3.27969  4.59467 
P   4.04984  6.59916  4.68509 
P  17.88963  6.62135  4.71935 
P  13.22270  6.59362  4.60782 
P   8.73794  6.74714  4.48046 
P   4.18301  9.84237  4.56137 
P  17.81400  9.99005  4.59982 
P  13.26122  9.76180  4.59883 
P   8.71701  9.80661  4.51804 
P   2.63782  1.75790  4.49843 
P  16.37428  1.61416  4.60291 
P  11.81486  1.54599  4.58020 
P   7.14946  1.66464  4.48294 
P   2.70762  4.96278  4.35573 
P  16.20953  4.91736  4.50900 
P  11.81821  5.02241  4.56821 
P   7.12015  4.91551  4.55807 
P   2.74841  8.25906  4.32090 
P  16.29557  8.26595  4.59805 
P  11.83729  8.34996  4.47328 
P   7.26745  8.29159  4.61559 
P   2.58499 11.59304  4.58372 
P  16.25632 11.49507  4.59221 
P  11.71793 11.64857  4.55120 
P   7.17795 11.59147  4.55710 
P   1.95798  1.41143  6.69528 
P  15.51218  1.53966  6.62976 
P  11.00952  1.65109  6.66854 
P   6.41732  1.55699  6.76141 
P   1.97784  4.99130  6.85854 
P  15.53541  5.17161  6.66975 
P   6.47973  4.81670  6.70105 
P   1.75855  8.27764  6.90959 
P  15.44670  8.29119  6.59380 
P  11.00139  8.21175  6.75520 
P   6.43833  8.34937  6.63373 
P   1.85860 11.54932  6.58087 
P  15.46525 11.53521  6.60904 
P  11.02882 11.60648  6.67257 
P   6.56456 11.66321  6.67776 
62
step 8 = 
P   0.42388 13.35086  6.81012 
P  14.13813 13.29349  6.67965 
P   9.47105 13.24937  6.64980 
P   5.02367 13.35853  6.65715 
P   0.24278  3.36727  6.55866 
P  13.95827  3.26221  6.66407 
P   9.46215  3.30962  6.63161 
P   4.95769  3.33220  6.66911 
P   0.40992  6.70697  6.47130 
P  14.14255  6.50704  6.65058 
P   4.89763  6.72579  6.60562 
P   0.51777  9.82569  6.61407 
P  14.21922  9.93992  6.65724 
P   9.45587  9.90743  6.65180 
P   4.86982  9.73818  6.67502 
P   4.20065 13.22160  4.56438 
P  17.83874 13.28678  4.45544 
P  13.17511 13.26238  4.54676 
P   8.73653 13.21990  4.57076 
P   4.11778  3.27461  4.57470 
P  17.85253  3.27601  4.61094 
P  13.27452  3.33226  4.53481 
P   8.79201  3.27969  4.59467 
P   4.04984  6.59916  4.68509 
P  17.88963  6.62135  4.71935 
P  13.22270  6.59362  4.60782 
P   8.73794  6.74714  4.48046 
P   4.18301  9.84237  4.56137 
P  17.81400  9.99005  4.59982 
P  13.26122  9.76180  4.59883 
P   8.71701  9.80661  4.51804 
P   2.63782  1.75790  4.49843 
P  16.37428  1.61416  4.60291 
P  11.81486  1.54599  4.58020 
P   7.14946  1.66464  4.48294 
P   2.70762  4.96278  4.35573 
P  16.20953  4.91736  4.50900 
P  11.81821  5.02241  4.56821 
P   7.12015  4.91551  4.55807 
P   2.74841  8.25906  4.32090 
P  16.29557  8.26595  4.59805 
P  11.83729  8.34996  4.47328 
P   7.26745  8.29159  4.61559 
P   2.58499 11.59304  4.58372 
P  16.25632 11.49507  4.59221 
P  11.71793 11.64857  4.55120 
P   7.17795 11.59147  4.55710 
P   1.95798  1.41143  6.69528 
P  15.51218  1.53966  6.62976 
P  11.00952  1.65109  6.66854 
P   6.41732  1.55699  6.76141 
P   1.97784  4.99130  6.85854 
P  15.53541  5.17161  6.66975 
P   6.47973  4.81670  6.70105 
P   1.75855  8.27764  6.90959 
P  15.44670  8.29119  6.59380 
P  11.00139  8.21175  6.75520 
P   6.43833  8.34937  6.63373 
P   1.85860 11.54932  6.58087 
P  15.46525 11.53521  6.60904 
P  11.02882 11.60648  6.67257 
P   6.56456 11.66321  6.67776 
62
step 9 = 
P   0.41224 13.30152  6.75742 
P  14.10501 13.26763  6.67564 
P   9.48190 13.23987  6.65774 
P   4.99490 13.30741  6.66142 
P   0.30098  3.34370  6.60154 
P  13.99324  3.27960  6.66669 
P   9.47546  3.30798  6.64674 
P   4.95326  3.32199  6.66955 
P   0.40372  6.67119  6.54742 
P  14.10839  6.54639  6.65833 
P   4.91583  6.68213  6.63032 
P   0.47047  9.86166  6.63486 
P  14.15504  9.93217  6.66253 
P   9.47341  9.91159  6.65906 
P   4.89970  9.80773  6.67364 
P   4.18502 13.22315  4.55861 
P  17.82911 13.26162  4.49130 
P  13.20857 13.24722  4.54852 
P   8.72618 13.22222  4.56320 
P   4.13343  3.28672  4.56549 
P  17.83831  3.28687  4.58704 
P  13.26978  3.32281  4.54096 
P   8.76075  3.29042  4.57788 
P   4.09199  6.60441  4.63499 
P  17.86132  6.61797  4.65527 
P  13.23819  6.60025  4.58556 
P   8.72686  6.69652  4.50717 
P   4.17355  9.87120  4.55766 
P  17.81543  9.96289  4.58091 
P  13.26080  9.82135  4.57987 
P   8.71546  9.84922  4.53051 
P   2.65097  1.71848  4.51833 
P  16.35523  1.62872  4.58351 
P  11.79998  1.58768  4.56957 
P   7.17780  1.66008  4.50891 
P   2.69379  4.96104  4.42995 
P  16.25399  4.93274  4.52472 
P  11.80188  4.99763  4.56059 
P   7.15929  4.93120  4.55460 
P   2.71849  8.26169  4.40783 
P  16.30796  8.26529  4.57950 
P  11.81284  8.31750  4.50256 
P   7.24919  8.28120  4.59093 
P   2.61667 11.58499  4.56960 
P  16.28344 11.52384  4.57631 
P  11.73937 11.61865  4.55112 
P   7.19515 11.58425  4.55516 
P   1.92900  1.50454  6.68682 
P  15.52221  1.58296  6.64559 
P  11.00099  1.65172  6.66970 
P   6.42456  1.59350  6.72622 
P   1.94195  4.97916  6.78668 
P  15.53715  5.09063  6.66951 
P   6.46364  4.87066  6.68911 
P   1.80571  8.27294  6.81839 
P  15.48219  8.28133  6.62370 
P  10.99590  8.23263  6.72292 
P   6.43751  8.31676  6.64784 
P   1.86762 11.55842  6.61555 
P  15.49389 11.54888  6.63313 
P  11.01292 11.59395  6.67168 
P   6.51410 11.62787  6.67564 
62
step 10 = 
P   0.39340 13.22169  6.67217 
P  14.05141 13.22580  6.66915 
P   9.49944 13.22449  6.67058 
P   4.94835 13.22470  6.66832 
P   0.39516  3.30555  6.67091 
P  14.04983  3.30776  6.67094 
P   9.49699  3.30532  6.67123 
P   4.94610  3.30547  6.67027 
P   0.39368  6.61331  6.67057 
P  14.05312  6.61005  6.67087 
P   4.94528  6.61149  6.67029 
P   0.39394  9.91985  6.66852 
P  14.05118  9.91962  6.67108 
P   9.50179  9.91834  6.67081 
P   4.94804  9.92025  6.67140 
P   4.15972 13.22564  4.54928 
P  17.81353 13.22091  4.54931 
P  13.26272 13.22269  4.55135 
P   8.70942 13.22596  4.55097 
P   4.15875  3.30632  4.55060 
P  17.81529  3.30443  4.54837 
P  13.26211  3.30753  4.55091 
P   8.71018  3.30779  4.55071 
P   4.16018  6.61289  4.55393 
P  17.81551  6.61250  4.55158 
P  13.26326  6.61099  4.54953 
P   8.70894  6.61462  4.55038 
P   4.15825  9.91784  4.55166 
P  17.81774  9.91895  4.55030 
P  13.26011  9.91772  4.54920 
P   8.71296  9.91816  4.55069 
P   2.67224  1.65471  4.55052 
P  16.32442  1.65226  4.55210 
P  11.77590  1.65514  4.55237 
P   7.22365  1.65271  4.55094 
P   2.67141  4.95821  4.55004 
P  16.32594  4.95763  4.55017 
P  11.77545  4.95753  4.54826 
P   7.22263  4.95659  4.54898 
P   2.67009  8.26595  4.54849 
P  16.32801  8.26423  4.54948 
P  11.77328  8.26496  4.54994 
P   7.21964  8.26438  4.55103 
P   2.66794 11.57195  4.54676 
P  16.32732 11.57038  4.55057 
P  11.77406 11.57024  4.55098 
P   7.22298 11.57258  4.55200 
P   1.88211  1.65520  6.67314 
P  15.53845  1.65301  6.67120 
P  10.98719  1.65274  6.67157 
P   6.43626  1.65256  6.66929 
P   1.88387  4.95950  6.67041 
P  15.53996  4.95961  6.66910 
P   6.43760  4.95797  6.66979 
P   1.88202  8.26534  6.67083 
P  15.53961  8.26539  6.67208 
P  10.98700  8.26641  6.67068 
P   6.43618  8.26399  6.67067 
P   1.88220 11.57316  6.67167 
P  15.54021 11.57101  6.67210 
P  10.98720 11.57366  6.67026 
P   6.43244 11.57069  6.67219 
62
step 11 = 
P   0.37457 13.14185  6.58691 
P  13.99782 13.18397  6.66266 
P   9.51698 13.20911  6.68343 
P   4.90180 13.14199  6.67523 
P   0.48933  3.26740  6.74029 
P  14.10641  3.33591  6.67518 
P   9.51853  3.30265  6.69572 
P   4.93894  3.28896  6.67099 
P   0.38364  6.55542  6.79373 
P  13.99785  6.67372  6.68342 
P   4.97473  6.54085  6.71025 
P   0.31740  9.97805  6.70217 
P  13.94732  9.90708  6.67963 
P   9.53018  9.92508  6.68256 
P   4.99638 10.03277  6.66916 
P   4.13443 13.22814  4.53995 
P  17.79794 13.18020  4.60732 
P  13.31686 13.19816  4.55419 
P   8.69267 13.22970  4.53873 
P   4.18406  3.32591  4.53571 
P  17.79228  3.32200  4.50969 
P  13.25444  3.29224  4.56086 
P   8.65960  3.32515  4.52354 
P   4.22838  6.62137  4.47286 
P  17.76970  6.60704  4.44789 
P  13.28834  6.62172  4.51350 
P   8.69101  6.53272  4.59358 
P   4.14295  9.96448  4.54566 
P  17.82005  9.87500  4.51970 
P  13.25943 10.01408  4.51852 
P   8.71045  9.98710  4.57087 
P   2.69352  1.59093  4.58272 
P  16.29360  1.67581  4.52070 
P  11.75181  1.72260  4.53517 
P   7.26951  1.64533  4.59296 
P   2.64904  4.95539  4.67013 
P  16.39788  4.98252  4.57561 
P  11.74902  4.91744  4.53593 
P   7.28596  4.98198  4.54337 
P   2.62168  8.27021  4.68915 
P  16.34806  8.26317  4.51946 
P  11.73372  8.21243  4.59732 
P   7.19009  8.24757  4.51113 
P   2.71921 11.55892  4.52393 
P  16.37120 11.61693  4.52484 
P  11.80875 11.52183  4.55084 
P   7.25082 11.56091  4.54885 
P   1.83523  1.80586  6.65946 
P  15.55469  1.72307  6.69681 
P  10.97339  1.65375  6.67343 
P   6.44796  1.71163  6.61236 
P   1.82580  4.93985  6.55414 
P  15.54277  4.82859  6.66870 
P   6.41156  5.04528  6.65048 
P   1.95833  8.25774  6.52327 
P  15.59704  8.24945  6.72046 
P  10.97811  8.30018  6.61844 
P   6.43485  8.21122  6.69350 
P   1.89679 11.58789  6.72779 
P  15.58654 11.59314  6.71107 
P  10.96149 11.55337  6.66883 
P   6.35078 11.51351  6.66875 
62
step 12 = 
P   0.36292 13.09251  6.53422 
P  13.96469 13.15812  6.65864 
P   9.52782 13.19960  6.69137 
P   4.87303 13.09087  6.67950 
P   0.54754  3.24383  6.78316 
P  14.14138  3.35330  6.67781 
P   9.53184  3.30101  6.71086 
P   4.93451  3.27875  6.67144 
P   0.37743  6.51965  6.86985 
P  13.96370  6.71306  6.69117 
P   4.99293  6.49719  6.73495 
P   0.27010 10.01402  6.72297 
P  13.88313  9.89933  6.68492 
P   9.54772  9.92925  6.68982 
P   5.02626 10.10232  6.66778 
P   4.11880 13.22968  4.53419 
P  17.78831 13.15504  4.64317 
P  13.35033 13.18300  4.55594 
P   8.68231 13.23202  4.53117 
P   4.19971  3.33802  4.52650 
P  17.77805  3.33285  4.48579 
P  13.24970  3.28279  4.56700 
P   8.62834  3.33589  4.50675 
P   4.27052  6.62661  4.42276 
P  17.74139  6.60366  4.38381 
P  13.30383  6.62835  4.49124 
P   8.67993  6.48211  4.62029 
P   4.13349  9.99330  4.54195 
P  17.82148  9.84784  4.50078 
P  13.25900 10.07363  4.49956 
P   8.70890 10.02971  4.58334 
P   2.70667  1.55152  4.60261 
P  16.27456  1.69036  4.50129 
P  11.73693  1.76429  4.52454 
P   7.29785  1.64078  4.61893 
P   2.63521  4.95365  4.74435 
P  16.44234  4.99790  4.59134 
P  11.73269  4.89266  4.52831 
P   7.32510  4.99767  4.53990 
P   2.59176  8.27284  4.77608 
P  16.36045  8.26251  4.50090 
P  11.70927  8.17996  4.62660 
P   7.17182  8.23718  4.48647 
P   2.75090 11.55086  4.50981 
P  16.39831 11.64570  4.50893 
P  11.83019 11.49191  4.55075 
P   7.26802 11.55369  4.54690 
P   1.80625  1.89897  6.65101 
P  15.56473  1.76636  6.71264 
P  10.96486  1.65438  6.67459 
P   6.45520  1.74814  6.57717 
P   1.78991  4.92770  6.48228 
P  15.54451  4.74762  6.66845 
P   6.39546  5.09924  6.63854 
P   2.00549  8.25304  6.43207 
P  15.63253  8.23960  6.75036 
P  10.97261  8.32106  6.58616 
P   6.43403  8.17861  6.70761 
P   1.90580 11.59700  6.76248 
P  15.61517 11.60681  6.73516 
P  10.94559 11.54083  6.66794 
P   6.30031 11.47817  6.66662 
62
step 13 = 
P   0.36292 13.09251  6.53422 
P  13.96469 13.15812  6.65864 
P   9.52782 13.19960  6.69137 
P   4.87303 13.09087  6.67950 
P   0.54754  3.24383  6.78316 
P  14.14138  3.35330  6.67781 
P   9.53184  3.30101  6.71086 
P   4.93451  3.27875  6.67144 
P   0.37743  6.51965  6.86985 
P  13.96370  6.71306  6.69117 
P   4.99293  6.49719  6.73495 
P   0.27010 10.01402  6.72297 
P  13.88313  9.89933  6.68492 
P   9.54772  9.92925  6.68982 
P   5.02626 10.10232  6.66778 
P   4.11880 13.22968  4.53419 
P  17.78831 13.15504  4.64317 
P  13.35033 13.18300  4.55594 
P   8.68231 13.23202  4.53117 
P   4.19971  3.33802  4.52650 
P  17.77805  3.33285  4.48579 
P  13.24970  3.28279  4.56700 
P   8.62834  3.33589  4.50675 
P   4.27052  6.62661  4.42276 
P  17.74139  6.60366  4.38381 
P  13.30383  6.62835  4.49124 
P   8.67993  6.48211  4.62029 
P   4.13349  9.99330  4.54195 
P  17.82148  9.84784  4.50078 
P  13.25900 10.07363  4.49956 
P   8.70890 10.02971  4.58334 
P   2.70667  1.55152  4.60261 
P  16.27456  1.69036  4.50129 
P  11.73693  1.76429  4.52454 
P   7.29785  1.64078  4.61893 
P   2.63521  4.95365  4.74435 
P  16.44234  4.99790  4.59134 
P  11.73269  4.89266  4.52831 
P   7.32510  4.99767  4.53990 
P   2.59176  8.27284  4.77608 
P  16.36045  8.26251  4.50090 
P  11.70927  8.17996  4.62660 
P   7.17182  8.23718  4.48647 
P   2.75090 11.55086  4.50981 
P  16.39831 11.64570  4.50893 
P  11.83019 11.49191  4.55075 
P   7.26802 11.55369  4.54690 
P   1.80625  1.89897  6.65101 
P  15.56473  1.76636  6.71264 
P  10.96486  1.65438  6.67459 
P   6.45520  1.74814  6.57717 
P   1.78991  4.92770  6.48228 
P  15.54451  4.74762  6.66845 
P   6.39546  5.09924  6.63854 
P   2.00549  8.25304  6.43207 
P  15.63253  8.23960  6.75036 
P  10.97261  8.32106  6.58616 
P   6.43403  8.17861  6.70761 
P   1.90580 11.59700  6.76248 
P  15.61517 11.60681  6.73516 
P  10.94559 11.54083  6.66794 
P   6.30031 11.47817  6.66662 
62
step 14 = 
P   0.37457 13.14185  6.58691 
P  13.99782 13.18397  6.66266 
P   9.51698 13.20911  6.68343 
P   4.90180 13.14199  6.67523 
P   0.48933  3.26740  6.74029 
P  14.10641  3.33591  6.67518 
P   9.51853  3.30265  6.69572 
P   4.93894  3.28896  6.67099 
P   0.38364  6.55542  6.79373 
P  13.99785  6.67372  6.68342 
P   4.97473  6.54085  6.71025 
P   0.31740  9.97805  6.70217 
P  13.94732  9.90708  6.67963 
P   9.53018  9.92508  6.68256 
P   4.99638 10.03277  6.66916 
P   4.13443 13.22814  4.53995 
P  17.79794 13.18020  4.60732 
P  13.31686 13.19816  4.55419 
P   8.69267 13.22970  4.53873 
P   4.18406  3.32591  4.53571 
P  17.79228  3.32200  4.50969 
P  13.25444  3.29224  4.56086 
P   8.65960  3.32515  4.52354 
P   4.22838  6.62137  4.47286 
P  17.76970  6.60704  4.44789 
P  13.28834  6.62172  4.51350 
P   8.69101  6.53272  4.59358 
P   4.14295  9.96448  4.54566 
P  17.82005  9.87500  4.51970 
P  13.25943 10.01408  4.51852 
P   8.71045  9.98710  4.57087 
P   2.69352  1.59093  4.58272 
P  16.29360  1.67581  4.52070 
P  11.75181  1.72260  4.53517 
P   7.26951  1.64533  4.59296 
P   2.64904  4.95539  4.67013 
P  16.39788  4.98252  4.57561 
P  11.74902  4.91744  4.53593 
P   7.28596  4.98198  4.54337 
P   2.62168  8.27021  4.68915 
P  16.34806  8.26317  4.51946 
P  11.73372  8.21243  4.59732 
P   7.19009  8.24757  4.51113 
P   2.71921 11.55892  4.52393 
P  16.37120 11.61693  4.52484 
P  11.80875 11.52183  4.55084 
P   7.25082 11.56091  4.54885 
P   1.83523  1.80586  6.65946 
P  15.55469  1.72307  6.69681 
P  10.97339  1.65375  6.67343 
P   6.44796  1.71163  6.61236 
P   1.82580  4.93985  6.55414 
P  15.54277  4.82859  6.66870 
P   6.41156  5.04528  6.65048 
P   1.95833  8.25774  6.52327 
P  15.59704  8.24945  6.72046 
P  10.97811  8.30018  6.61844 
P   6.43485  8.21122  6.69350 
P   1.89679 11.58789  6.72779 
P  15.58654 11.59314  6.71107 
P  10.96149 11.55337  6.66883 
P   6.35078 11.51351  6.66875 
62
step 15 = 
P   0.39340 13.22169  6.67217 
P  14.05141 13.22580  6.66915 
P   9.49944 13.22449  6.67058 
P   4.94835 13.22470  6.66832 
P   0.39516  3.30555  6.67091 
P  14.04983  3.30776  6.67094 
P   9.49699  3.30532  6.67123 
P   4.94610  3.30547  6.67027 
P   0.39368  6.61331  6.67057 
P  14.05312  6.61005  6.67087 
P   4.94528  6.61149  6.67029 
P   0.39394  9.91985  6.66852 
P  14.05118  9.91962  6.67108 
P   9.50179  9.91834  6.67081 
P   4.94804  9.92025  6.67140 
P   4.15972 13.22564  4.54928 
P  17.81353 13.22091  4.54931 
P  13.26272 13.22269  4.55135 
P   8.70942 13.22596  4.55097 
P   4.15875  3.30632  4.55060 
P  17.81529  3.30443  4.54837 
P  13.26211  3.30753  4.55091 
P   8.71018  3.30779  4.55071 
P   4.16018  6.61289  4.55393 
P  17.81551  6.61250  4.55158 
P  13.26326  6.61099  4.54953 
P   8.70894  6.61462  4.55038 
P   4.15825  9.91784  4.55166 
P  17.81774  9.91895  4.55030 
P  13.26011  9.91772  4.54920 