62
step 0 = 
P   0.39340 13.22169  6.67217 
P  14.05141 13.22580  6.66915 
P   9.49944 13.22449  6.67058 
P   4.94835 13.22470  6.66832 
P   0.39516  3.30555  6.67091 
P  14.04983  3.30776  6.67094 
P   9.49699  3.30532  6.67123 
P   4.94610  3.30547  6.67027 
P   0.39368  6.61331  6.67057 
P  14.05312  6.61005  6.67087 
P   4.94528  6.61149  6.67029 
P   0.39394  9.91985  6.66852 
P  14.05118  9.91962  6.67108 
P   9.50179  9.91834  6.67081 
P   4.94804  9.92025  6.67140 
P   4.15972 13.22564  4.54928 
P  17.81353 13.22091  4.54931 
P  13.26272 13.22269  4.55135 
P   8.70942 13.22596  4.55097 
P   4.15875  3.30632  4.55060 
P  17.81529  3.30443  4.54837 
P  13.26211  3.30753  4.55091 
P   8.71018  3.30779  4.55071 
P   4.16018  6.61289  4.55393 
P  17.81551  6.61250  4.55158 
P  13.26326  6.61099  4.54953 
P   8.70894  6.61462  4.55038 
P   4.15825  9.91784  4.55166 
P  17.81774  9.91895  4.55030 
P  13.26011  9.91772  4.54920 
P   8.71296  9.91816  4.55069 
P   2.67224  1.65471  4.55052 
P  16.32442  1.65226  4.55210 
P  11.77590  1.65514  4.55237 
P   7.22365  1.65271  4.55094 
P   2.67141  4.95821  4.55004 
P  16.32594  4.95763  4.55017 
P  11.77545  4.95753  4.54826 
P   7.22263  4.95659  4.54898 
P   2.67009  8.26595  4.54849 
P  16.32801  8.26423  4.54948 
P  11.77328  8.26496  4.54994 
P   7.21964  8.26438  4.55103 
P   2.66794 11.57195  4.54676 
P  16.32732 11.57038  4.55057 
P  11.77406 11.57024  4.55098 
P   7.22298 11.57258  4.55200 
P   1.88211  1.65520  6.67314 
P  15.53845  1.65301  6.67120 
P  10.98719  1.65274  6.67157 
P   6.43626  1.65256  6.66929 
P   1.88387  4.95950  6.67041 
P  15.53996  4.95961  6.66910 
P   6.43760  4.95797  6.66979 
P   1.88202  8.26534  6.67083 
P  15.53961  8.26539  6.67208 
P  10.98700  8.26641  6.67068 
P   6.43618  8.26399  6.67067 
P   1.88220 11.57316  6.67167 
P  15.54021 11.57101  6.67210 
P  10.98720 11.57366  6.67026 
P   6.43244 11.57069  6.67219 
62
step 1 = 
P   0.36671 13.22048  6.64664 
P  14.02504 13.18257  6.73045 
P   9.48222 13.15531  6.63968 
P   4.97824 13.30808  6.69218 
P   0.37467  3.34455  6.62317 
P  14.00834  3.34121  6.68681 
P   9.50014  3.20378  6.68409 
P   4.88992  3.25131  6.69690 
P   0.40179  6.68363  6.68144 
P  14.04196  6.66312  6.63001 
P   5.03343  6.58977  6.66329 
P   0.41916  9.97537  6.71348 
P  14.06102  9.83334  6.64920 
P   9.50404  9.99154  6.67858 
P   4.89452  9.91985  6.67854 
P   4.12193 13.16700  4.56183 
P  17.87580 13.20429  4.55367 
P  13.20408 13.36219  4.53960 
P   8.78451 13.25233  4.55842 
P   4.18034  3.26904  4.59096 
P  17.86051  3.28344  4.54906 
P  13.26440  3.32512  4.53511 
P   8.69754  3.29820  4.56043 
P   4.10796  6.56560  4.51843 
P  17.70259  6.70031  4.57756 
P  13.29376  6.49857  4.49012 
P   8.72133  6.61364  4.53189 
P   4.16237  9.90601  4.57292 
P  17.82297  9.84580  4.53598 
P  13.26257  9.95320  4.53686 
P   8.67519  9.94100  4.54806 
P   2.70276  1.59221  4.52702 
P  16.35133  1.63860  4.52117 
P  11.66215  1.80674  4.53246 
P   7.18976  1.66378  4.57219 
P   2.59239  4.91038  4.55779 
P  16.41971  4.90696  4.56013 
P  11.85117  4.92385  4.54137 
P   7.25394  5.00075  4.57434 
P   2.69215  8.29442  4.53074 
P  16.25489  8.31848  4.53560 
P  11.85109  8.20071  4.63377 
P   7.21294  8.23160  4.56350 
P   2.53691 11.52610  4.53265 
P  16.43099 11.55333  4.54266 
P  11.82663 11.66264  4.57837 
P   7.28832 11.61726  4.52848 
P   1.91177  1.63513  6.66313 
P  15.47770  1.64404  6.66824 
P  11.00412  1.58075  6.62995 
P   6.50144  1.71404  6.68870 
P   1.90236  4.98574  6.65920 
P  15.50932  5.07662  6.69808 
P   6.38905  4.95269  6.61356 
P   1.87825  8.30420  6.69728 
P  15.62799  8.21037  6.67399 
P  10.94229  8.17976  6.69062 
P   6.45450  8.29726  6.70993 
P   1.87898 11.60146  6.61770 
P  15.53646 11.47960  6.70480 
P  10.96819 11.56013  6.67924 
P   6.40502 11.58907  6.65142 
62
step 2 = 
P   0.35021 13.21974  6.63086 
P  14.00875 13.15585  6.76834 
P   9.47158 13.11256  6.62058 
P   4.99671 13.35962  6.70693 
P   0.36201  3.36866  6.59367 
P  13.98271  3.36188  6.69662 
P   9.50208  3.14103  6.69204 
P   4.85519  3.21783  6.71335 
P   0.40681  6.72709  6.68816 
P  14.03506  6.69591  6.60475 
P   5.08791  6.57634  6.65897 
P   0.43475 10.00968  6.74128 
P  14.06710  9.78001  6.63568 
P   9.50543 10.03678  6.68339 
P   4.86144  9.91960  6.68296 
P   4.09858 13.13075  4.56958 
P  17.91429 13.19402  4.55637 
P  13.16784 13.44840  4.53233 
P   8.83091 13.26863  4.56302 
P   4.19368  3.24601  4.61590 
P  17.88846  3.27046  4.54948 
P  13.26581  3.33600  4.52535 
P   8.68973  3.29227  4.56644 
P   4.07569  6.53637  4.49649 
P  17.63279  6.75457  4.59362 
P  13.31261  6.42910  4.45340 
P   8.72899  6.61303  4.52047 
P   4.16492  9.89870  4.58606 
P  17.82620  9.80059  4.52712 
P  13.26410  9.97513  4.52923 
P   8.65186  9.95512  4.54644 
P   2.72162  1.55358  4.51249 
P  16.36796  1.63015  4.50206 
P  11.59186  1.90043  4.52016 
P   7.16882  1.67063  4.58533 
P   2.54354  4.88081  4.56259 
P  16.47767  4.87564  4.56629 
P  11.89797  4.90303  4.53710 
P   7.27330  5.02805  4.59002 
P   2.70579  8.31201  4.51977 
P  16.20970  8.35201  4.52703 
P  11.89918  8.16100  4.68558 
P   7.20881  8.21134  4.57120 
P   2.45593 11.49776  4.52393 
P  16.49506 11.54279  4.53777 
P  11.85912 11.71974  4.59530 
P   7.32871 11.64487  4.51395 
P   1.93009  1.62272  6.65695 
P  15.44015  1.63850  6.66642 
P  11.01459  1.53626  6.60424 
P   6.54173  1.75203  6.70069 
P   1.91378  5.00196  6.65227 
P  15.49038  5.14894  6.71599 
P   6.35905  4.94943  6.57881 
P   1.87592  8.32822  6.71363 
P  15.68261  8.17636  6.67518 
P  10.91465  8.12621  6.70294 
P   6.46583  8.31783  6.73420 
P   1.87699 11.61895  6.58434 
P  15.53414 11.42311  6.72501 
P  10.95644 11.55177  6.68478 
P   6.38807 11.60044  6.63857 
62
step 3 = 
P   0.35021 13.21974  6.63086 
P  14.00875 13.15585  6.76834 
P   9.47158 13.11256  6.62058 
P   4.99671 13.35962  6.70693 
P   0.36201  3.36866  6.59367 
P  13.98271  3.36188  6.69662 
P   9.50208  3.14103  6.69204 
P   4.85519  3.21783  6.71335 
P   0.40681  6.72709  6.68816 
P  14.03506  6.69591  6.60475 
P   5.08791  6.57634  6.65897 
P   0.43475 10.00968  6.74128 
P  14.06710  9.78001  6.63568 
P   9.50543 10.03678  6.68339 
P   4.86144  9.91960  6.68296 
P   4.09858 13.13075  4.56958 
P  17.91429 13.19402  4.55637 
P  13.16784 13.44840  4.53233 
P   8.83091 13.26863  4.56302 
P   4.19368  3.24601  4.61590 
P  17.88846  3.27046  4.54948 
P  13.26581  3.33600  4.52535 
P   8.68973  3.29227  4.56644 
P   4.07569  6.53637  4.49649 
P  17.63279  6.75457  4.59362 
P  13.31261  6.42910  4.45340 
P   8.72899  6.61303  4.52047 
P   4.16492  9.89870  4.58606 
P  17.82620  9.80059  4.52712 
P  13.26410  9.97513  4.52923 
P   8.65186  9.95512  4.54644 
P   2.72162  1.55358  4.51249 
P  16.36796  1.63015  4.50206 
P  11.59186  1.90043  4.52016 
P   7.16882  1.67063  4.58533 
P   2.54354  4.88081  4.56259 
P  16.47767  4.87564  4.56629 
P  11.89797  4.90303  4.53710 
P   7.27330  5.02805  4.59002 
P   2.70579  8.31201  4.51977 
P  16.20970  8.35201  4.52703 
P  11.89918  8.16100  4.68558 
P   7.20881  8.21134  4.57120 
P   2.45593 11.49776  4.52393 
P  16.49506 11.54279  4.53777 
P  11.85912 11.71974  4.59530 
P   7.32871 11.64487  4.51395 
P   1.93009  1.62272  6.65695 
P  15.44015  1.63850  6.66642 
P  11.01459  1.53626  6.60424 
P   6.54173  1.75203  6.70069 
P   1.91378  5.00196  6.65227 
P  15.49038  5.14894  6.71599 
P   6.35905  4.94943  6.57881 
P   1.87592  8.32822  6.71363 
P  15.68261  8.17636  6.67518 
P  10.91465  8.12621  6.70294 
P   6.46583  8.31783  6.73420 
P   1.87699 11.61895  6.58434 
P  15.53414 11.42311  6.72501 
P  10.95644 11.55177  6.68478 
P   6.38807 11.60044  6.63857 
62
step 4 = 
P   0.36671 13.22048  6.64664 
P  14.02504 13.18257  6.73045 
P   9.48222 13.15531  6.63968 
P   4.97824 13.30808  6.69218 
P   0.37467  3.34455  6.62317 
P  14.00834  3.34121  6.68681 
P   9.50014  3.20378  6.68409 
P   4.88992  3.25131  6.69690 
P   0.40179  6.68363  6.68144 
P  14.04196  6.66312  6.63001 
P   5.03343  6.58977  6.66329 
P   0.41916  9.97537  6.71348 
P  14.06102  9.83334  6.64920 
P   9.50404  9.99154  6.67858 
P   4.89452  9.91985  6.67854 
P   4.12193 13.16700  4.56183 
P  17.87580 13.20429  4.55367 
P  13.20408 13.36219  4.53960 
P   8.78451 13.25233  4.55842 
P   4.18034  3.26904  4.59096 
P  17.86051  3.28344  4.54906 
P  13.26440  3.32512  4.53511 
P   8.69754  3.29820  4.56043 
P   4.10796  6.56560  4.51843 
P  17.70259  6.70031  4.57756 
P  13.29376  6.49857  4.49012 
P   8.72133  6.61364  4.53189 
P   4.16237  9.90601  4.57292 
P  17.82297  9.84580  4.53598 
P  13.26257  9.95320  4.53686 
P   8.67519  9.94100  4.54806 
P   2.70276  1.59221  4.52702 
P  16.35133  1.63860  4.52117 
P  11.66215  1.80674  4.53246 
P   7.18976  1.66378  4.57219 
P   2.59239  4.91038  4.55779 
P  16.41971  4.90696  4.56013 
P  11.85117  4.92385  4.54137 
P   7.25394  5.00075  4.57434 
P   2.69215  8.29442  4.53074 
P  16.25489  8.31848  4.53560 
P  11.85109  8.20071  4.63377 
P   7.21294  8.23160  4.56350 
P   2.53691 11.52610  4.53265 
P  16.43099 11.55333  4.54266 
P  11.82663 11.66264  4.57837 
P   7.28832 11.61726  4.52848 
P   1.91177  1.63513  6.66313 
P  15.47770  1.64404  6.66824 
P  11.00412  1.58075  6.62995 
P   6.50144  1.71404  6.68870 
P   1.90236  4.98574  6.65920 
P  15.50932  5.07662  6.69808 
P   6.38905  4.95269  6.61356 
P   1.87825  8.30420  6.69728 
P  15.62799  8.21037  6.67399 
P  10.94229  8.17976  6.69062 
P   6.45450  8.29726  6.70993 
P   1.87898 11.60146  6.61770 
P  15.53646 11.47960  6.70480 
P  10.96819 11.56013  6.67924 
P   6.40502 11.58907  6.65142 
62
step 5 = 
P   0.39340 13.22169  6.67217 
P  14.05141 13.22580  6.66915 
P   9.49944 13.22449  6.67058 
P   4.94835 13.22470  6.66832 
P   0.39516  3.30555  6.67091 
P  14.04983  3.30776  6.67094 
P   9.49699  3.30532  6.67123 
P   4.94610  3.30547  6.67027 
P   0.39368  6.61331  6.67057 
P  14.05312  6.61005  6.67087 
P   4.94528  6.61149  6.67029 
P   0.39394  9.91985  6.66852 
P  14.05118  9.91962  6.67108 
P   9.50179  9.91834  6.67081 
P   4.94804  9.92025  6.67140 
P   4.15972 13.22564  4.54928 
P  17.81353 13.22091  4.54931 
P  13.26272 13.22269  4.55135 
P   8.70942 13.22596  4.55097 
P   4.15875  3.30632  4.55060 
P  17.81529  3.30443  4.54837 
P  13.26211  3.30753  4.55091 
P   8.71018  3.30779  4.55071 
P   4.16018  6.61289  4.55393 
P  17.81551  6.61250  4.55158 
P  13.26326  6.61099  4.54953 
P   8.70894  6.61462  4.55038 
P   4.15825  9.91784  4.55166 
P  17.81774  9.91895  4.55030 
P  13.26011  9.91772  4.54920 
P   8.71296  9.91816  4.55069 
P   2.67224  1.65471  4.55052 
P  16.32442  1.65226  4.55210 
P  11.77590  1.65514  4.55237 
P   7.22365  1.65271  4.55094 
P   2.67141  4.95821  4.55004 
P  16.32594  4.95763  4.55017 
P  11.77545  4.95753  4.54826 
P   7.22263  4.95659  4.54898 
P   2.67009  8.26595  4.54849 
P  16.32801  8.26423  4.54948 
P  11.77328  8.26496  4.54994 
P   7.21964  8.26438  4.55103 
P   2.66794 11.57195  4.54676 
P  16.32732 11.57038  4.55057 
P  11.77406 11.57024  4.55098 
P   7.22298 11.57258  4.55200 
P   1.88211  1.65520  6.67314 
P  15.53845  1.65301  6.67120 
P  10.98719  1.65274  6.67157 
P   6.43626  1.65256  6.66929 
P   1.88387  4.95950  6.67041 
P  15.53996  4.95961  6.66910 
P   6.43760  4.95797  6.66979 
P   1.88202  8.26534  6.67083 
P  15.53961  8.26539  6.67208 
P  10.98700  8.26641  6.67068 
P   6.43618  8.26399  6.67067 
P   1.88220 11.57316  6.67167 
P  15.54021 11.57101  6.67210 
P  10.98720 11.57366  6.67026 
P   6.43244 11.57069  6.67219 
62
step 6 = 
P   0.42010 13.22289  6.69770 
P  14.07778 13.26903  6.60784 
P   9.51666 13.29366  6.70149 
P   4.91846 13.14131  6.64447 
P   0.41565  3.26655  6.71865 
P  14.09131  3.27430  6.65507 
P   9.49385  3.40685  6.65837 
P   5.00228  3.35964  6.64365 
P   0.38556  6.54299  6.65971 
P  14.06428  6.55699  6.71174 
P   4.85712  6.63322  6.67728 
P   0.36871  9.86434  6.62355 
P  14.04134 10.00591  6.69296 
P   9.49955  9.84514  6.66303 
P   5.00156  9.92065  6.66426 
P   4.19751 13.28428  4.53673 
P  17.75125 13.23753  4.54494 
P  13.32135 13.08319  4.56311 
P   8.63434 13.19959  4.54352 
P   4.13715  3.34359  4.51024 
P  17.77007  3.32543  4.54768 
P  13.25982  3.28993  4.56670 
P   8.72282  3.31737  4.54099 
P   4.21240  6.66018  4.58942 
P  17.92843  6.52470  4.52560 
P  13.23277  6.72340  4.60894 
P   8.69654  6.61561  4.56886 
P   4.15413  9.92966  4.53040 
P  17.81251  9.99210  4.56463 
P  13.25765  9.88223  4.56153 
P   8.75072  9.89532  4.55332 
P   2.64173  1.71721  4.57403 
P  16.29751  1.66593  4.58303 
P  11.88964  1.50354  4.57227 
P   7.25754  1.64164  4.52968 
P   2.75044  5.00605  4.54228 
P  16.23216  5.00830  4.54020 
P  11.69973  4.99122  4.55516 
P   7.19131  4.91242  4.52363 
P   2.64802  8.23748  4.56624 
P  16.40113  8.20998  4.56335 
P  11.69546  8.32921  4.46611 
P   7.22633  8.29717  4.53857 
P   2.79897 11.61780  4.56088 
P  16.22365 11.58743  4.55848 
P  11.72149 11.47785  4.52358 
P   7.15764 11.52790  4.57552 
P   1.85246  1.67527  6.68315 
P  15.59921  1.66198  6.67415 
P  10.97026  1.72472  6.71318 
P   6.37108  1.59109  6.64988 
P   1.86539  4.93326  6.68163 
P  15.57060  4.84260  6.64012 
P   6.48615  4.96325  6.72602 
P   1.88580  8.22648  6.64438 
P  15.45124  8.32042  6.67017 
P  11.03172  8.35305  6.65074 
P   6.41786  8.23071  6.63141 
P   1.88543 11.54485  6.72565 
P  15.54397 11.66242  6.63940 
P  11.00622 11.58719  6.66128 
P   6.45985 11.55230  6.69297 
62
step 7 = 
P   0.43659 13.22364  6.71348 
P  14.09407 13.29575  6.56995 
P   9.52730 13.33641  6.72059 
P   4.89999 13.08978  6.62972 
P   0.42831  3.24244  6.74816 
P  14.11694  3.25363  6.64526 
P   9.49191  3.46960  6.65042 
P   5.03701  3.39311  6.62720 
P   0.38055  6.49952  6.65299 
P  14.07118  6.52419  6.73700 
P   4.80264  6.64665  6.68160 
P   0.35312  9.83003  6.59576 
P  14.03526 10.05924  6.70648 
P   9.49816  9.79990  6.65823 
P   5.03463  9.92090  6.65984 
P   4.22087 13.32053  4.52898 
P  17.71276 13.24780  4.54224 
P  13.35759 12.99698  4.57037 
P   8.58793 13.18329  4.53892 
P   4.12381  3.36663  4.48530 
P  17.74212  3.33841  4.54725 
P  13.25840  3.27905  4.57646 
P   8.73063  3.32330  4.53498 
P   4.24467  6.68941  4.61136 
P  17.99822  6.47043  4.50954 
P  13.21392  6.79287  4.64566 
P   8.68888  6.61621  4.58028 
P   4.15159  9.93697  4.51725 
P  17.80928 10.03730  4.57348 
P  13.25613  9.86030  4.56916 
P   8.77405  9.88120  4.55494 
P   2.62287  1.75583  4.58856 
P  16.28088  1.67438  4.60215 
P  11.95993  1.40985  4.58457 
P   7.27849  1.63479  4.51655 
P   2.79929  5.03561  4.53749 
P  16.17420  5.03962  4.53404 
P  11.65293  5.01204  4.55942 
P   7.17195  4.88513  4.50795 
P   2.63438  8.21989  4.57720 
P  16.44632  8.17645  4.57193 
P  11.64737  8.36892  4.41430 
P   7.23047  8.31743  4.53086 
P   2.87996 11.64614  4.56960 
P  16.15957 11.59797  4.56337 
P  11.68900 11.42074  4.50665 
P   7.11726 11.50028  4.59006 
P   1.83413  1.68768  6.68934 
P  15.63676  1.66753  6.67598 
P  10.95979  1.76921  6.73890 
P   6.33079  1.55310  6.63789 
P   1.85397  4.91704  6.68856 
P  15.58953  4.77029  6.62221 
P   6.51615  4.96651  6.76077 
P   1.88813  8.20246  6.62803 
P  15.39662  8.35443  6.66898 
P  11.05936  8.40661  6.63842 
P   6.40654  8.21015  6.60714 
P   1.88742 11.52736  6.75900 
P  15.54629 11.71891  6.61919 
P  11.01796 11.59555  6.65573 
P   6.47680 11.54094  6.70581 
62
step 8 = 
P   0.43659 13.22364  6.71348 
P  14.09407 13.29575  6.56995 
P   9.52730 13.33641  6.72059 
P   4.89999 13.08978  6.62972 
P   0.42831  3.24244  6.74816 
P  14.11694  3.25363  6.64526 
P   9.49191  3.46960  6.65042 
P   5.03701  3.39311  6.62720 
P   0.38055  6.49952  6.65299 
P  14.07118  6.52419  6.73700 
P   4.80264  6.64665  6.68160 
P   0.35312  9.83003  6.59576 
P  14.03526 10.05924  6.70648 
P   9.49816  9.79990  6.65823 
P   5.03463  9.92090  6.65984 
P   4.22087 13.32053  4.52898 
P  17.71276 13.24780  4.54224 
P  13.35759 12.99698  4.57037 
P   8.58793 13.18329  4.53892 
P   4.12381  3.36663  4.48530 
P  17.74212  3.33841  4.54725 
P  13.25840  3.27905  4.57646 
P   8.73063  3.32330  4.53498 
P   4.24467  6.68941  4.61136 
P  17.99822  6.47043  4.50954 
P  13.21392  6.79287  4.64566 
P   8.68888  6.61621  4.58028 
P   4.15159  9.93697  4.51725 
P  17.80928 10.03730  4.57348 
P  13.25613  9.86030  4.56916 
P   8.77405  9.88120  4.55494 
P   2.62287  1.75583  4.58856 
P  16.28088  1.67438  4.60215 
P  11.95993  1.40985  4.58457 
P   7.27849  1.63479  4.51655 
P   2.79929  5.03561  4.53749 
P  16.17420  5.03962  4.53404 
P  11.65293  5.01204  4.55942 
P   7.17195  4.88513  4.50795 
P   2.63438  8.21989  4.57720 
P  16.44632  8.17645  4.57193 
P  11.64737  8.36892  4.41430 
P   7.23047  8.31743  4.53086 
P   2.87996 11.64614  4.56960 
P  16.15957 11.59797  4.56337 
P  11.68900 11.42074  4.50665 
P   7.11726 11.50028  4.59006 
P   1.83413  1.68768  6.68934 
P  15.63676  1.66753  6.67598 
P  10.95979  1.76921  6.73890 
P   6.33079  1.55310  6.63789 
P   1.85397  4.91704  6.68856 
P  15.58953  4.77029  6.62221 
P   6.51615  4.96651  6.76077 
P   1.88813  8.20246  6.62803 
P  15.39662  8.35443  6.66898 
P  11.05936  8.40661  6.63842 
P   6.40654  8.21015  6.60714 
P   1.88742 11.52736  6.75900 
P  15.54629 11.71891  6.61919 
P  11.01796 11.59555  6.65573 
P   6.47680 11.54094  6.70581 
62
step 9 = 
P   0.42010 13.22289  6.69770 
P  14.07778 13.26903  6.60784 
P   9.51666 13.29366  6.70149 
P   4.91846 13.14131  6.64447 
P   0.41565  3.26655  6.71865 
P  14.09131  3.27430  6.65507 
P   9.49385  3.40685  6.65837 
P   5.00228  3.35964  6.64365 
P   0.38556  6.54299  6.65971 
P  14.06428  6.55699  6.71174 
P   4.85712  6.63322  6.67728 
P   0.36871  9.86434  6.62355 
P  14.04134 10.00591  6.69296 
P   9.49955  9.84514  6.66303 
P   5.00156  9.92065  6.66426 
P   4.19751 13.28428  4.53673 
P  17.75125 13.23753  4.54494 
P  13.32135 13.08319  4.56311 
P   8.63434 13.19959  4.54352 
P   4.13715  3.34359  4.51024 
P  17.77007  3.32543  4.54768 
P  13.25982  3.28993  4.56670 
P   8.72282  3.31737  4.54099 
P   4.21240  6.66018  4.58942 
P  17.92843  6.52470  4.52560 
P  13.23277  6.72340  4.60894 
P   8.69654  6.61561  4.56886 
P   4.15413  9.92966  4.53040 
P  17.81251  9.99210  4.56463 
P  13.25765  9.88223  4.56153 
P   8.75072  9.89532  4.55332 
P   2.64173  1.71721  4.57403 
P  16.29751  1.66593  4.58303 
P  11.88964  1.50354  4.57227 
P   7.25754  1.64164  4.52968 
P   2.75044  5.00605  4.54228 
P  16.23216  5.00830  4.54020 
P  11.69973  4.99122  4.55516 
P   7.19131  4.91242  4.52363 
P   2.64802  8.23748  4.56624 
P  16.40113  8.20998  4.56335 
P  11.69546  8.32921  4.46611 
P   7.22633  8.29717  4.53857 
P   2.79897 11.61780  4.56088 
P  16.22365 11.58743  4.55848 
P  11.72149 11.47785  4.52358 
P   7.15764 11.52790  4.57552 
P   1.85246  1.67527  6.68315 
P  15.59921  1.66198  6.67415 
P  10.97026  1.72472  6.71318 
P   6.37108  1.59109  6.64988 
P   1.86539  4.93326  6.68163 
P  15.57060  4.84260  6.64012 
P   6.48615  4.96325  6.72602 
P   1.88580  8.22648  6.64438 
P  15.45124  8.32042  6.67017 
P  11.03172  8.35305  6.65074 
P   6.41786  8.23071  6.63141 
P   1.88543 11.54485  6.72565 
P  15.54397 11.66242  6.63940 
P  11.00622 11.58719  6.66128 
P   6.45985 11.55230  6.69297 
62
step 10 = 
P   0.39340 13.22169  6.67217 
P  14.05141 13.22580  6.66915 
P   9.49944 13.22449  6.67058 
P   4.94835 13.22470  6.66832 
P   0.39516  3.30555  6.67091 
P  14.04983  3.30776  6.67094 
P   9.49699  3.30532  6.67123 
P   4.94610  3.30547  6.67027 
P   0.39368  6.61331  6.67057 
P  14.05312  6.61005  6.67087 
P   4.94528  6.61149  6.67029 
P   0.39394  9.91985  6.66852 
P  14.05118  9.91962  6.67108 
P   9.50179  9.91834  6.67081 
P   4.94804  9.92025  6.67140 
P   4.15972 13.22564  4.54928 
P  17.81353 13.22091  4.54931 
P  13.26272 13.22269  4.55135 
P   8.70942 13.22596  4.55097 
P   4.15875  3.30632  4.55060 
P  17.81529  3.30443  4.54837 
P  13.26211  3.30753  4.55091 
P   8.71018  3.30779  4.55071 
P   4.16018  6.61289  4.55393 
P  17.81551  6.61250  4.55158 
P  13.26326  6.61099  4.54953 
P   8.70894  6.61462  4.55038 
P   4.15825  9.91784  4.55166 
P  17.81774  9.91895  4.55030 
P  13.26011  9.91772  4.54920 
P   8.71296  9.91816  4.55069 
P   2.67224  1.65471  4.55052 
P  16.32442  1.65226  4.55210 
P  11.77590  1.65514  4.55237 
P   7.22365  1.65271  4.55094 
P   2.67141  4.95821  4.55004 
P  16.32594  4.95763  4.55017 
P  11.77545  4.95753  4.54826 
P   7.22263  4.95659  4.54898 
P   2.67009  8.26595  4.54849 
P  16.32801  8.26423  4.54948 
P  11.77328  8.26496  4.54994 
P   7.21964  8.26438  4.55103 
P   2.66794 11.57195  4.54676 
P  16.32732 11.57038  4.55057 
P  11.77406 11.57024  4.55098 
P   7.22298 11.57258  4.55200 
P   1.88211  1.65520  6.67314 
P  15.53845  1.65301  6.67120 
P  10.98719  1.65274  6.67157 
P   6.43626  1.65256  6.66929 
P   1.88387  4.95950  6.67041 
P  15.53996  4.95961  6.66910 
P   6.43760  4.95797  6.66979 
P   1.88202  8.26534  6.67083 
P  15.53961  8.26539  6.67208 
P  10.98700  8.26641  6.67068 
P   6.43618  8.26399  6.67067 
P   1.88220 11.57316  6.67167 
P  15.54021 11.57101  6.67210 
P  10.98720 11.57366  6.67026 
P   6.43244 11.57069  6.67219 
62
step 11 = 
P   0.36671 13.22048  6.64664 
P  14.02504 13.18257  6.73045 
P   9.48222 13.15531  6.63968 
P   4.97824 13.30808  6.69218 
P   0.37467  3.34455  6.62317 
P  14.00834  3.34121  6.68681 
P   9.50014  3.20378  6.68409 
P   4.88992  3.25131  6.69690 
P   0.40179  6.68363  6.68144 
P  14.04196  6.66312  6.63001 
P   5.03343  6.58977  6.66329 
P   0.41916  9.97537  6.71348 
P  14.06102  9.83334  6.64920 
P   9.50404  9.99154  6.67858 
P   4.89452  9.91985  6.67854 
P   4.12193 13.16700  4.56183 
P  17.87580 13.20429  4.55367 
P  13.20408 13.36219  4.53960 
P   8.78451 13.25233  4.55842 
P   4.18034  3.26904  4.59096 
P  17.86051  3.28344  4.54906 
P  13.26440  3.32512  4.53511 
P   8.69754  3.29820  4.56043 
P   4.10796  6.56560  4.51843 
P  17.70259  6.70031  4.57756 
P  13.29376  6.49857  4.49012 
P   8.72133  6.61364  4.53189 
P   4.16237  9.90601  4.57292 
P  17.82297  9.84580  4.53598 
P  13.26257  9.95320  4.53686 
P   8.67519  9.94100  4.54806 
P   2.70276  1.59221  4.52702 
P  16.35133  1.63860  4.52117 
P  11.66215  1.80674  4.53246 
P   7.18976  1.66378  4.57219 
P   2.59239  4.91038  4.55779 
P  16.41971  4.90696  4.56013 
P  11.85117  4.92385  4.54137 
P   7.25394  5.00075  4.57434 
P   2.69215  8.29442  4.53074 
P  16.25489  8.31848  4.53560 
P  11.85109  8.20071  4.63377 
P   7.21294  8.23160  4.56350 
P   2.53691 11.52610  4.53265 
P  16.43099 11.55333  4.54266 
P  11.82663 11.66264  4.57837 
P   7.28832 11.61726  4.52848 
P   1.91177  1.63513  6.66313 
P  15.47770  1.64404  6.66824 
P  11.00412  1.58075  6.62995 
P   6.50144  1.71404  6.68870 
P   1.90236  4.98574  6.65920 
P  15.50932  5.07662  6.69808 
P   6.38905  4.95269  6.61356 
P   1.87825  8.30420  6.69728 
P  15.62799  8.21037  6.67399 
P  10.94229  8.17976  6.69062 
P   6.45450  8.29726  6.70993 
P   1.87898 11.60146  6.61770 
P  15.53646 11.47960  6.70480 
P  10.96819 11.56013  6.67924 
P   6.40502 11.58907  6.65142 
62
step 12 = 
P   0.35021 13.21974  6.63086 
P  14.00875 13.15585  6.76834 
P   9.47158 13.11256  6.62058 
P   4.99671 13.35962  6.70693 
P   0.36201  3.36866  6.59367 
P  13.98271  3.36188  6.69662 
P   9.50208  3.14103  6.69204 
P   4.85519  3.21783  6.71335 
P   0.40681  6.72709  6.68816 
P  14.03506  6.69591  6.60475 
P   5.08791  6.57634  6.65897 
P   0.43475 10.00968  6.74128 
P  14.06710  9.78001  6.63568 
P   9.50543 10.03678  6.68339 
P   4.86144  9.91960  6.68296 
P   4.09858 13.13075  4.56958 
P  17.91429 13.19402  4.55637 
P  13.16784 13.44840  4.53233 
P   8.83091 13.26863  4.56302 
P   4.19368  3.24601  4.61590 
P  17.88846  3.27046  4.54948 
P  13.26581  3.33600  4.52535 
P   8.68973  3.29227  4.56644 
P   4.07569  6.53637  4.49649 
P  17.63279  6.75457  4.59362 
P  13.31261  6.42910  4.45340 
P   8.72899  6.61303  4.52047 
P   4.16492  9.89870  4.58606 
P  17.82620  9.80059  4.52712 
P  13.26410  9.97513  4.52923 
P   8.65186  9.95512  4.54644 
P   2.72162  1.55358  4.51249 
P  16.36796  1.63015  4.50206 
P  11.59186  1.90043  4.52016 
P   7.16882  1.67063  4.58533 
P   2.54354  4.88081  4.56259 
P  16.47767  4.87564  4.56629 
P  11.89797  4.90303  4.53710 
P   7.27330  5.02805  4.59002 
P   2.70579  8.31201  4.51977 
P  16.20970  8.35201  4.52703 
P  11.89918  8.16100  4.68558 
P   7.20881  8.21134  4.57120 
P   2.45593 11.49776  4.52393 
P  16.49506 11.54279  4.53777 
P  11.85912 11.71974  4.59530 
P   7.32871 11.64487  4.51395 
P   1.93009  1.62272  6.65695 
P  15.44015  1.63850  6.66642 
P  11.01459  1.53626  6.60424 
P   6.54173  1.75203  6.70069 
P   1.91378  5.00196  6.65227 
P  15.49038  5.14894  6.71599 
P   6.35905  4.94943  6.57881 
P   1.87592  8.32822  6.71363 
P  15.68261  8.17636  6.67518 
P  10.91465  8.12621  6.70294 
P   6.46583  8.31783  6.73420 
P   1.87699 11.61895  6.58434 
P  15.53414 11.42311  6.72501 
P  10.95644 11.55177  6.68478 
P   6.38807 11.60044  6.63857 
62
step 13 = 
P   0.35021 13.21974  6.63086 
P  14.00875 13.15585  6.76834 
P   9.47158 13.11256  6.62058 
P   4.99671 13.35962  6.70693 
P   0.36201  3.36866  6.59367 
P  13.98271  3.36188  6.69662 
P   9.50208  3.14103  6.69204 
P   4.85519  3.21783  6.71335 
P   0.40681  6.72709  6.68816 
P  14.03506  6.69591  6.60475 
P   5.08791  6.57634  6.65897 
P   0.43475 10.00968  6.74128 
P  14.06710  9.78001  6.63568 
P   9.50543 10.03678  6.68339 
P   4.86144  9.91960  6.68296 
P   4.09858 13.13075  4.56958 
P  17.91429 13.19402  4.55637 
P  13.16784 13.44840  4.53233 
P   8.83091 13.26863  4.56302 
P   4.19368  3.24601  4.61590 
P  17.88846  3.27046  4.54948 
P  13.26581  3.33600  4.52535 
P   8.68973  3.29227  4.56644 
P   4.07569  6.53637  4.49649 
P  17.63279  6.75457  4.59362 
P  13.31261  6.42910  4.45340 
P   8.72899  6.61303  4.52047 
P   4.16492  9.89870  4.58606 
P  17.82620  9.80059  4.52712 
P  13.26410  9.97513  4.52923 
P   8.65186  9.95512  4.54644 
P   2.72162  1.55358  4.51249 
P  16.36796  1.63015  4.50206 
P  11.59186  1.90043  4.52016 
P   7.16882  1.67063  4.58533 
P   2.54354  4.88081  4.56259 
P  16.47767  4.87564  4.56629 
P  11.89797  4.90303  4.53710 
P   7.27330  5.02805  4.59002 
P   2.70579  8.31201  4.51977 
P  16.20970  8.35201  4.52703 
P  11.89918  8.16100  4.68558 
P   7.20881  8.21134  4.57120 
P   2.45593 11.49776  4.52393 
P  16.49506 11.54279  4.53777 
P  11.85912 11.71974  4.59530 
P   7.32871 11.64487  4.51395 
P   1.93009  1.62272  6.65695 
P  15.44015  1.63850  6.66642 
P  11.01459  1.53626  6.60424 
P   6.54173  1.75203  6.70069 
P   1.91378  5.00196  6.65227 
P  15.49038  5.14894  6.71599 
P   6.35905  4.94943  6.57881 
P   1.87592  8.32822  6.71363 
P  15.68261  8.17636  6.67518 
P  10.91465  8.12621  6.70294 
P   6.46583  8.31783  6.73420 
P   1.87699 11.61895  6.58434 
P  15.53414 11.42311  6.72501 
P  10.95644 11.55177  6.68478 
P   6.38807 11.60044  6.63857 
62
step 14 = 
P   0.36671 13.22048  6.64664 
P  14.02504 13.18257  6.73045 
P   9.48222 13.15531  6.63968 
P   4.97824 13.30808  6.69218 
P   0.37467  3.34455  6.62317 
P  14.00834  3.34121  6.68681 
P   9.50014  3.20378  6.68409 
P   4.88992  3.25131  6.69690 
P   0.40179  6.68363  6.68144 
P  14.04196  6.66312  6.63001 
P   5.03343  6.58977  6.66329 
P   0.41916  9.97537  6.71348 
P  14.06102  9.83334  6.64920 
P   9.50404  9.99154  6.67858 
P   4.89452  9.91985  6.67854 
P   4.12193 13.16700  4.56183 
P  17.87580 13.20429  4.55367 
P  13.20408 13.36219  4.53960 
P   8.78451 13.25233  4.55842 
P   4.18034  3.26904  4.59096 
P  17.86051  3.28344  4.54906 
P  13.26440  3.32512  4.53511 
P   8.69754  3.29820  4.56043 
P   4.10796  6.56560  4.51843 
P  17.70259  6.70031  4.57756 
P  13.29376  6.49857  4.49012 
P   8.72133  6.61364  4.53189 
P   4.16237  9.90601  4.57292 
P  17.82297  9.84580  4.53598 
P  13.26257  9.95320  4.53686 
P   8.67519  9.94100  4.54806 
P   2.70276  1.59221  4.52702 
P  16.35133  1.63860  4.52117 
P  11.66215  1.80674  4.53246 
P   7.18976  1.66378  4.57219 
P   2.59239  4.91038  4.55779 
P  16.41971  4.90696  4.56013 
P  11.85117  4.92385  4.54137 
P   7.25394  5.00075  4.57434 
P   2.69215  8.29442  4.53074 
P  16.25489  8.31848  4.53560 
P  11.85109  8.20071  4.63377 
P   7.21294  8.23160  4.56350 
P   2.53691 11.52610  4.53265 
P  16.43099 11.55333  4.54266 
P  11.82663 11.66264  4.57837 
P   7.28832 11.61726  4.52848 
P   1.91177  1.63513  6.66313 
P  15.47770  1.64404  6.66824 
P  11.00412  1.58075  6.62995 
P   6.50144  1.71404  6.68870 
P   1.90236  4.98574  6.65920 
P  15.50932  5.07662  6.69808 
P   6.38905  4.95269  6.61356 
P   1.87825  8.30420  6.69728 
P  15.62799  8.21037  6.67399 
P  10.94229  8.17976  6.69062 
P   6.45450  8.29726  6.70993 
P   1.87898 11.60146  6.61770 
P  15.53646 11.47960  6.70480 
P  10.96819 11.56013  6.67924 
P   6.40502 11.58907  6.65142 
62
step 15 = 
P   0.39340 13.22169  6.67217 
P  14.05141 13.22580  6.66915 
P   9.49944 13.22449  6.67058 
P   4.94835 13.22470  6.66832 
P   0.39516  3.30555  6.67091 
P  14.04983  3.30776  6.67094 
P   9.49699  3.30532  6.67123 
P   4.94610  3.30547  6.67027 
P   0.39368  6.61331  6.67057 
P  14.05312  6.61005  6.67087 
P   4.94528  6.61149  6.67029 
P   0.39394  9.91985  6.66852 
P  14.05118  9.91962  6.67108 
P   9.50179  9.91834  6.67081 
P   4.94804  9.92025  6.67140 
P   4.15972 13.22564  4.54928 
P  17.81353 13.22091  4.54931 
P  13.26272 13.22269  4.55135 
P   8.70942 13.22596  4.55097 
P   4.15875  3.30632  4.55060 
P  17.81529  3.30443  4.54837 
P  13.26211  3.30753  4.55091 
P   8.71018  3.30779  4.55071 
P   4.16018  6.61289  4.55393 
P  17.81551  6.61250  4.55158 
P  13.26326  6.61099  4.54953 
P   8.70894  6.61462  4.55038 
P   4.15825  9.91784  4.55166 
P  17.81774  9.91895  4.55030 
P  13.26011  9.91772  4.54920 