62
step 0 = 
P   0.39340 13.22169  6.67217 
P  14.05141 13.22580  6.66915 
P   9.49944 13.22449  6.67058 
P   4.94835 13.22470  6.66832 
P   0.39516  3.30555  6.67091 
P  14.04983  3.30776  6.67094 
P   9.49699  3.30532  6.67123 
P   4.94610  3.30547  6.67027 
P   0.39368  6.61331  6.67057 
P  14.05312  6.61005  6.67087 
P   4.94528  6.61149  6.67029 
P   0.39394  9.91985  6.66852 
P  14.05118  9.91962  6.67108 
P   9.50179  9.91834  6.67081 
P   4.94804  9.92025  6.67140 
P   4.15972 13.22564  4.54928 
P  17.81353 13.22091  4.54931 
P  13.26272 13.22269  4.55135 
P   8.70942 13.22596  4.55097 
P   4.15875  3.30632  4.55060 
P  17.81529  3.30443  4.54837 
P  13.26211  3.30753  4.55091 
P   8.71018  3.30779  4.55071 
P   4.16018  6.61289  4.55393 
P  17.81551  6.61250  4.55158 
P  13.26326  6.61099  4.54953 
P   8.70894  6.61462  4.55038 
P   4.15825  9.91784  4.55166 
P  17.81774  9.91895  4.55030 
P  13.26011  9.91772  4.54920 
P   8.71296  9.91816  4.55069 
P   2.67224  1.65471  4.55052 
P  16.32442  1.65226  4.55210 
P  11.77590  1.65514  4.55237 
P   7.22365  1.65271  4.55094 
P   2.67141  4.95821  4.55004 
P  16.32594  4.95763  4.55017 
P  11.77545  4.95753  4.54826 
P   7.22263  4.95659  4.54898 
P   2.67009  8.26595  4.54849 
P  16.32801  8.26423  4.54948 
P  11.77328  8.26496  4.54994 
P   7.21964  8.26438  4.55103 
P   2.66794 11.57195  4.54676 
P  16.32732 11.57038  4.55057 
P  11.77406 11.57024  4.55098 
P   7.22298 11.57258  4.55200 
P   1.88211  1.65520  6.67314 
P  15.53845  1.65301  6.67120 
P  10.98719  1.65274  6.67157 
P   6.43626  1.65256  6.66929 
P   1.88387  4.95950  6.67041 
P  15.53996  4.95961  6.66910 
P   6.43760  4.95797  6.66979 
P   1.88202  8.26534  6.67083 
P  15.53961  8.26539  6.67208 
P  10.98700  8.26641  6.67068 
P   6.43618  8.26399  6.67067 
P   1.88220 11.57316  6.67167 
P  15.54021 11.57101  6.67210 
P  10.98720 11.57366  6.67026 
P   6.43244 11.57069  6.67219 
62
step 1 = 
P   0.34990 13.17627  6.70548 
P  14.07474 13.24714  6.76301 
P   9.55421 13.22700  6.64238 
P   5.03364 13.25420  6.56113 
P   0.36838  3.35457  6.70000 
P  13.95077  3.28459  6.66206 
P   9.54180  3.26191  6.61717 
P   4.96573  3.31862  6.62939 
P   0.37283  6.64829  6.72728 
P  13.98599  6.65690  6.55824 
P   4.98628  6.59309  6.72439 
P   0.46240  9.94285  6.63001 
P  14.04997  9.83740  6.64842 
P   9.48377  9.92931  6.65154 
P   4.94811  9.92632  6.61854 
P   4.14027 13.21061  4.64005 
P  17.81957 13.25665  4.49728 
P  13.28764 13.25561  4.50212 
P   8.74837 13.21552  4.59250 
P   4.12153  3.30607  4.59959 
P  17.85921  3.28177  4.57507 
P  13.30099  3.30292  4.55824 
P   8.67800  3.33198  4.57960 
P   4.18220  6.59426  4.47861 
P  17.86873  6.62567  4.51407 
P  13.22355  6.59868  4.60759 
P   8.61610  6.65457  4.53503 
P   4.20759  9.89002  4.61913 
P  17.83346  9.92774  4.61017 
P  13.21024 10.05357  4.55516 
P   8.65105  9.90209  4.55786 
P   2.70710  1.64699  4.46626 
P  16.29937  1.64897  4.61798 
P  11.76017  1.62553  4.54754 
P   7.19179  1.72047  4.47140 
P   2.70569  4.97239  4.60921 
P  16.27847  4.98777  4.50861 
P  11.74131  4.97735  4.57655 
P   7.27536  4.87723  4.54971 
P   2.62058  8.25765  4.54876 
P  16.30722  8.23237  4.47783 
P  11.79423  8.21417  4.52858 
P   7.32985  8.26771  4.54586 
P   2.63335 11.63821  4.46967 
P  16.31458 11.55334  4.60959 
P  11.82915 11.47862  4.54517 
P   7.22491 11.54836  4.49108 
P   1.92354  1.67542  6.69261 
P  15.55874  1.60901  6.59328 
P  10.94518  1.69853  6.69347 
P   6.38139  1.59629  6.76375 
P   1.89454  4.86427  6.58570 
P  15.64316  4.92310  6.71816 
P   6.39957  4.99348  6.68330 
P   1.81731  8.31872  6.65892 
P  15.54557  8.30076  6.77357 
P  11.01499  8.24316  6.72709 
P   6.40248  8.22220  6.64824 
P   1.85445 11.51888  6.73209 
P  15.55689 11.62270  6.59364 
P  10.97329 11.58646  6.68458 
P   6.42239 11.62199  6.76017 
62
step 2 = 
P   0.32301 13.14821  6.72607 
P  14.08916 13.26033  6.82101 
P   9.58806 13.22855  6.62495 
P   5.08635 13.27243  6.49488 
P   0.35183  3.38486  6.71798 
P  13.88955  3.27027  6.65657 
P   9.56949  3.23509  6.58375 
P   4.97786  3.32675  6.60411 
P   0.35995  6.66991  6.76232 
P  13.94451  6.68586  6.48863 
P   5.01163  6.58171  6.75784 
P   0.50471  9.95707  6.60621 
P  14.04922  9.78659  6.63441 
P   9.47264  9.93609  6.63963 
P   4.94816  9.93008  6.58587 
P   4.12825 13.20133  4.69614 
P  17.82331 13.27874  4.46512 
P  13.30305 13.27596  4.47169 
P   8.77244 13.20907  4.61816 
P   4.09854  3.30591  4.62987 
P  17.88635  3.26776  4.59158 
P  13.32503  3.30007  4.56277 
P   8.65812  3.34694  4.59745 
P   4.19580  6.58274  4.43206 
P  17.90162  6.63381  4.49088 
P  13.19900  6.59107  4.64348 
P   8.55872  6.67925  4.52555 
P   4.23808  9.87283  4.66084 
P  17.84317  9.93317  4.64717 
P  13.17942 10.13754  4.55885 
P   8.61278  9.89216  4.56229 
P   2.72864  1.64222  4.41418 
P  16.28389  1.64694  4.65869 
P  11.75046  1.60724  4.54455 
P   7.17209  1.76235  4.42225 
P   2.72687  4.98115  4.64578 
P  16.24913  5.00641  4.48293 
P  11.72021  4.98960  4.59403 
P   7.30796  4.82819  4.55016 
P   2.58998  8.25252  4.54893 
P  16.29437  8.21268  4.43355 
P  11.80718  8.18278  4.51538 
P   7.39796  8.26976  4.54267 
P   2.61197 11.67916  4.42203 
P  16.30670 11.54281  4.64607 
P  11.86320 11.42199  4.54158 
P   7.22609 11.53339  4.45343 
P   1.94914  1.68792  6.70464 
P  15.57127  1.58182  6.54512 
P  10.91921  1.72683  6.70700 
P   6.34749  1.56151  6.82213 
P   1.90113  4.80541  6.53335 
P  15.70694  4.90054  6.74847 
P   6.37606  5.01542  6.69165 
P   1.77732  8.35171  6.65156 
P  15.54925  8.32262  6.83629 
P  11.03229  8.22879  6.76196 
P   6.38165  8.19637  6.63438 
P   1.83731 11.48533  6.76944 
P  15.56720 11.65464  6.54516 
P  10.96469 11.59438  6.69344 
P   6.41618 11.65370  6.81454 
62
step 3 = 
P   0.32301 13.14821  6.72607 
P  14.08916 13.26033  6.82101 
P   9.58806 13.22855  6.62495 
P   5.08635 13.27243  6.49488 
P   0.35183  3.38486  6.71798 
P  13.88955  3.27027  6.65657 
P   9.56949  3.23509  6.58375 
P   4.97786  3.32675  6.60411 
P   0.35995  6.66991  6.76232 
P  13.94451  6.68586  6.48863 
P   5.01163  6.58171  6.75784 
P   0.50471  9.95707  6.60621 
P  14.04922  9.78659  6.63441 
P   9.47264  9.93609  6.63963 
P   4.94816  9.93008  6.58587 
P   4.12825 13.20133  4.69614 
P  17.82331 13.27874  4.46512 
P  13.30305 13.27596  4.47169 
P   8.77244 13.20907  4.61816 
P   4.09854  3.30591  4.62987 
P  17.88635  3.26776  4.59158 
P  13.32503  3.30007  4.56277 
P   8.65812  3.34694  4.59745 
P   4.19580  6.58274  4.43206 
P  17.90162  6.63381  4.49088 
P  13.19900  6.59107  4.64348 
P   8.55872  6.67925  4.52555 
P   4.23808  9.87283  4.66084 
P  17.84317  9.93317  4.64717 
P  13.17942 10.13754  4.55885 
P   8.61278  9.89216  4.56229 
P   2.72864  1.64222  4.41418 
P  16.28389  1.64694  4.65869 
P  11.75046  1.60724  4.54455 
P   7.17209  1.76235  4.42225 
P   2.72687  4.98115  4.64578 
P  16.24913  5.00641  4.48293 
P  11.72021  4.98960  4.59403 
P   7.30796  4.82819  4.55016 
P   2.58998  8.25252  4.54893 
P  16.29437  8.21268  4.43355 
P  11.80718  8.18278  4.51538 
P   7.39796  8.26976  4.54267 
P   2.61197 11.67916  4.42203 
P  16.30670 11.54281  4.64607 
P  11.86320 11.42199  4.54158 
P   7.22609 11.53339  4.45343 
P   1.94914  1.68792  6.70464 
P  15.57127  1.58182  6.54512 
P  10.91921  1.72683  6.70700 
P   6.34749  1.56151  6.82213 
P   1.90113  4.80541  6.53335 
P  15.70694  4.90054  6.74847 
P   6.37606  5.01542  6.69165 
P   1.77732  8.35171  6.65156 
P  15.54925  8.32262  6.83629 
P  11.03229  8.22879  6.76196 
P   6.38165  8.19637  6.63438 
P   1.83731 11.48533  6.76944 
P  15.56720 11.65464  6.54516 
P  10.96469 11.59438  6.69344 
P   6.41618 11.65370  6.81454 
62
step 4 = 
P   0.34990 13.17627  6.70548 
P  14.07474 13.24714  6.76301 
P   9.55421 13.22700  6.64238 
P   5.03364 13.25420  6.56113 
P   0.36838  3.35457  6.70000 
P  13.95077  3.28459  6.66206 
P   9.54180  3.26191  6.61717 
P   4.96573  3.31862  6.62939 
P   0.37283  6.64829  6.72728 
P  13.98599  6.65690  6.55824 
P   4.98628  6.59309  6.72439 
P   0.46240  9.94285  6.63001 
P  14.04997  9.83740  6.64842 
P   9.48377  9.92931  6.65154 
P   4.94811  9.92632  6.61854 
P   4.14027 13.21061  4.64005 
P  17.81957 13.25665  4.49728 
P  13.28764 13.25561  4.50212 
P   8.74837 13.21552  4.59250 
P   4.12153  3.30607  4.59959 
P  17.85921  3.28177  4.57507 
P  13.30099  3.30292  4.55824 
P   8.67800  3.33198  4.57960 
P   4.18220  6.59426  4.47861 
P  17.86873  6.62567  4.51407 
P  13.22355  6.59868  4.60759 
P   8.61610  6.65457  4.53503 
P   4.20759  9.89002  4.61913 
P  17.83346  9.92774  4.61017 
P  13.21024 10.05357  4.55516 
P   8.65105  9.90209  4.55786 
P   2.70710  1.64699  4.46626 
P  16.29937  1.64897  4.61798 
P  11.76017  1.62553  4.54754 
P   7.19179  1.72047  4.47140 
P   2.70569  4.97239  4.60921 
P  16.27847  4.98777  4.50861 
P  11.74131  4.97735  4.57655 
P   7.27536  4.87723  4.54971 
P   2.62058  8.25765  4.54876 
P  16.30722  8.23237  4.47783 
P  11.79423  8.21417  4.52858 
P   7.32985  8.26771  4.54586 
P   2.63335 11.63821  4.46967 
P  16.31458 11.55334  4.60959 
P  11.82915 11.47862  4.54517 
P   7.22491 11.54836  4.49108 
P   1.92354  1.67542  6.69261 
P  15.55874  1.60901  6.59328 
P  10.94518  1.69853  6.69347 
P   6.38139  1.59629  6.76375 
P   1.89454  4.86427  6.58570 
P  15.64316  4.92310  6.71816 
P   6.39957  4.99348  6.68330 
P   1.81731  8.31872  6.65892 
P  15.54557  8.30076  6.77357 
P  11.01499  8.24316  6.72709 
P   6.40248  8.22220  6.64824 
P   1.85445 11.51888  6.73209 
P  15.55689 11.62270  6.59364 
P  10.97329 11.58646  6.68458 
P   6.42239 11.62199  6.76017 
62
step 5 = 
P   0.39340 13.22169  6.67217 
P  14.05141 13.22580  6.66915 
P   9.49944 13.22449  6.67058 
P   4.94835 13.22470  6.66832 
P   0.39516  3.30555  6.67091 
P  14.04983  3.30776  6.67094 
P   9.49699  3.30532  6.67123 
P   4.94610  3.30547  6.67027 
P   0.39368  6.61331  6.67057 
P  14.05312  6.61005  6.67087 
P   4.94528  6.61149  6.67029 
P   0.39394  9.91985  6.66852 
P  14.05118  9.91962  6.67108 
P   9.50179  9.91834  6.67081 
P   4.94804  9.92025  6.67140 
P   4.15972 13.22564  4.54928 
P  17.81353 13.22091  4.54931 
P  13.26272 13.22269  4.55135 
P   8.70942 13.22596  4.55097 
P   4.15875  3.30632  4.55060 
P  17.81529  3.30443  4.54837 
P  13.26211  3.30753  4.55091 
P   8.71018  3.30779  4.55071 
P   4.16018  6.61289  4.55393 
P  17.81551  6.61250  4.55158 
P  13.26326  6.61099  4.54953 
P   8.70894  6.61462  4.55038 
P   4.15825  9.91784  4.55166 
P  17.81774  9.91895  4.55030 
P  13.26011  9.91772  4.54920 
P   8.71296  9.91816  4.55069 
P   2.67224  1.65471  4.55052 
P  16.32442  1.65226  4.55210 
P  11.77590  1.65514  4.55237 
P   7.22365  1.65271  4.55094 
P   2.67141  4.95821  4.55004 
P  16.32594  4.95763  4.55017 
P  11.77545  4.95753  4.54826 
P   7.22263  4.95659  4.54898 
P   2.67009  8.26595  4.54849 
P  16.32801  8.26423  4.54948 
P  11.77328  8.26496  4.54994 
P   7.21964  8.26438  4.55103 
P   2.66794 11.57195  4.54676 
P  16.32732 11.57038  4.55057 
P  11.77406 11.57024  4.55098 
P   7.22298 11.57258  4.55200 
P   1.88211  1.65520  6.67314 
P  15.53845  1.65301  6.67120 
P  10.98719  1.65274  6.67157 
P   6.43626  1.65256  6.66929 
P   1.88387  4.95950  6.67041 
P  15.53996  4.95961  6.66910 
P   6.43760  4.95797  6.66979 
P   1.88202  8.26534  6.67083 
P  15.53961  8.26539  6.67208 
P  10.98700  8.26641  6.67068 
P   6.43618  8.26399  6.67067 
P   1.88220 11.57316  6.67167 
P  15.54021 11.57101  6.67210 
P  10.98720 11.57366  6.67026 
P   6.43244 11.57069  6.67219 
62
step 6 = 
P   0.43691 13.26710  6.63885 
P  14.02808 13.20446  6.57529 
P   9.44467 13.22198  6.69879 
P   4.86306 13.19520  6.77551 
P   0.42193  3.25653  6.64182 
P  14.14888  3.33092  6.67982 
P   9.45219  3.34872  6.72530 
P   4.92647  3.29233  6.71116 
P   0.41452  6.57833  6.61387 
P  14.12025  6.56321  6.78351 
P   4.90427  6.62990  6.61618 
P   0.32548  9.89685  6.70702 
P  14.05239 10.00185  6.69374 
P   9.51981  9.90737  6.69007 
P   4.94796  9.91418  6.72426 
P   4.17918 13.24067  4.45851 
P  17.80748 13.18517  4.60134 
P  13.23779 13.18977  4.60058 
P   8.67048 13.23640  4.50944 
P   4.19596  3.30657  4.50161 
P  17.77138  3.32710  4.52166 
P  13.22322  3.31213  4.54357 
P   8.74235  3.28359  4.52182 
P   4.13817  6.63152  4.62924 
P  17.76229  6.59933  4.58910 
P  13.30298  6.62329  4.49146 
P   8.80177  6.57468  4.56572 
P   4.10891  9.94566  4.48418 
P  17.80203  9.91016  4.49043 
P  13.30998  9.78186  4.54323 
P   8.77487  9.93423  4.54352 
P   2.63739  1.66243  4.63478 
P  16.34947  1.65555  4.48623 
P  11.79162  1.68474  4.55720 
P   7.25552  1.58495  4.63047 
P   2.63714  4.94403  4.49087 
P  16.37340  4.92748  4.59172 
P  11.80959  4.93771  4.51998 
P   7.16989  5.03594  4.54826 
P   2.71959  8.27425  4.54822 
P  16.34880  8.29609  4.62113 
P  11.75233  8.31576  4.57130 
P   7.10943  8.26106  4.55620 
P   2.70253 11.50569  4.62385 
P  16.34006 11.58742  4.49155 
P  11.71897 11.66187  4.55678 
P   7.22106 11.59680  4.61292 
P   1.84069  1.63497  6.65368 
P  15.51817  1.69701  6.74912 
P  11.02920  1.60694  6.64967 
P   6.49112  1.70884  6.57483 
P   1.87321  5.05474  6.75512 
P  15.43675  4.99612  6.62005 
P   6.47563  4.92246  6.65629 
P   1.94673  8.21196  6.68274 
P  15.53366  8.23003  6.57059 
P  10.95901  8.28965  6.61427 
P   6.46988  8.30578  6.69310 
P   1.90995 11.62743  6.61125 
P  15.52354 11.51932  6.75056 
P  11.00112 11.56085  6.65593 
P   6.44249 11.51939  6.58422 
62
step 7 = 
P   0.46380 13.29516  6.61826 
P  14.01366 13.19127  6.51728 
P   9.41082 13.22043  6.71622 
P   4.81035 13.17696  6.84176 
P   0.43848  3.22624  6.62384 
P  14.21011  3.34524  6.68530 
P   9.42450  3.37554  6.75871 
P   4.91434  3.28420  6.73643 
P   0.42741  6.55671  6.57883 
P  14.16174  6.53425  6.85312 
P   4.87892  6.64127  6.58274 
P   0.28317  9.88264  6.73082 
P  14.05313 10.05266  6.70775 
P   9.53095  9.90059  6.70198 
P   4.94792  9.91042  6.75693 
P   4.19120 13.24995  4.40242 
P  17.80375 13.16309  4.63349 
P  13.22238 13.16943  4.63101 
P   8.64641 13.24285  4.48378 
P   4.21895  3.30672  4.47133 
P  17.74423  3.34111  4.50516 
P  13.19919  3.31498  4.53904 
P   8.76223  3.26863  4.50397 
P   4.12456  6.64304  4.67579 
P  17.72939  6.59119  4.61228 
P  13.32753  6.63090  4.45558 
P   8.85915  6.55000  4.57520 
P   4.07842  9.96285  4.44248 
P  17.79232  9.90472  4.45343 
P  13.34081  9.69789  4.53954 
P   8.81313  9.94416  4.53909 
P   2.61585  1.66720  4.68686 
P  16.36495  1.65758  4.44552 
P  11.80133  1.70304  4.56018 
P   7.27522  1.54307  4.67962 
P   2.61596  4.93527  4.45430 
P  16.40274  4.90885  4.61741 
P  11.83069  4.92546  4.50250 
P   7.13729  5.08498  4.54780 
P   2.75019  8.27938  4.54805 
P  16.36165  8.31579  4.66541 
P  11.73938  8.34715  4.58450 
P   7.04131  8.25901  4.55940 
P   2.72391 11.46474  4.67150 
P  16.34793 11.59795  4.45507 
P  11.68492 11.71849  4.56037 
P   7.21987 11.61176  4.65057 
P   1.81509  1.62247  6.64164 
P  15.50563  1.72421  6.79727 
P  11.05517  1.57864  6.63613 
P   6.52503  1.74362  6.51645 
P   1.86661  5.11360  6.80747 
P  15.37297  5.01869  6.58974 
P   6.49914  4.90052  6.64794 
P   1.98672  8.17897  6.69010 
P  15.52998  8.20817  6.50787 
P  10.94171  8.30402  6.57940 
P   6.49071  8.33161  6.70696 
P   1.92710 11.66098  6.57390 
P  15.51323 11.48737  6.79905 
P  11.00972 11.55294  6.64707 
P   6.44870 11.48768  6.52984 
62
step 8 = 
P   0.46380 13.29516  6.61826 
P  14.01366 13.19127  6.51728 
P   9.41082 13.22043  6.71622 
P   4.81035 13.17696  6.84176 
P   0.43848  3.22624  6.62384 
P  14.21011  3.34524  6.68530 
P   9.42450  3.37554  6.75871 
P   4.91434  3.28420  6.73643 
P   0.42741  6.55671  6.57883 
P  14.16174  6.53425  6.85312 
P   4.87892  6.64127  6.58274 
P   0.28317  9.88264  6.73082 
P  14.05313 10.05266  6.70775 
P   9.53095  9.90059  6.70198 
P   4.94792  9.91042  6.75693 
P   4.19120 13.24995  4.40242 
P  17.80375 13.16309  4.63349 
P  13.22238 13.16943  4.63101 
P   8.64641 13.24285  4.48378 
P   4.21895  3.30672  4.47133 
P  17.74423  3.34111  4.50516 
P  13.19919  3.31498  4.53904 
P   8.76223  3.26863  4.50397 
P   4.12456  6.64304  4.67579 
P  17.72939  6.59119  4.61228 
P  13.32753  6.63090  4.45558 
P   8.85915  6.55000  4.57520 
P   4.07842  9.96285  4.44248 
P  17.79232  9.90472  4.45343 
P  13.34081  9.69789  4.53954 
P   8.81313  9.94416  4.53909 
P   2.61585  1.66720  4.68686 
P  16.36495  1.65758  4.44552 
P  11.80133  1.70304  4.56018 
P   7.27522  1.54307  4.67962 
P   2.61596  4.93527  4.45430 
P  16.40274  4.90885  4.61741 
P  11.83069  4.92546  4.50250 
P   7.13729  5.08498  4.54780 
P   2.75019  8.27938  4.54805 
P  16.36165  8.31579  4.66541 
P  11.73938  8.34715  4.58450 
P   7.04131  8.25901  4.55940 
P   2.72391 11.46474  4.67150 
P  16.34793 11.59795  4.45507 
P  11.68492 11.71849  4.56037 
P   7.21987 11.61176  4.65057 
P   1.81509  1.62247  6.64164 
P  15.50563  1.72421  6.79727 
P  11.05517  1.57864  6.63613 
P   6.52503  1.74362  6.51645 
P   1.86661  5.11360  6.80747 
P  15.37297  5.01869  6.58974 
P   6.49914  4.90052  6.64794 
P   1.98672  8.17897  6.69010 
P  15.52998  8.20817  6.50787 
P  10.94171  8.30402  6.57940 
P   6.49071  8.33161  6.70696 
P   1.92710 11.66098  6.57390 
P  15.51323 11.48737  6.79905 
P  11.00972 11.55294  6.64707 
P   6.44870 11.48768  6.52984 
62
step 9 = 
P   0.43691 13.26710  6.63885 
P  14.02808 13.20446  6.57529 
P   9.44467 13.22198  6.69879 
P   4.86306 13.19520  6.77551 
P   0.42193  3.25653  6.64182 
P  14.14888  3.33092  6.67982 
P   9.45219  3.34872  6.72530 
P   4.92647  3.29233  6.71116 
P   0.41452  6.57833  6.61387 
P  14.12025  6.56321  6.78351 
P   4.90427  6.62990  6.61618 
P   0.32548  9.89685  6.70702 
P  14.05239 10.00185  6.69374 
P   9.51981  9.90737  6.69007 
P   4.94796  9.91418  6.72426 
P   4.17918 13.24067  4.45851 
P  17.80748 13.18517  4.60134 
P  13.23779 13.18977  4.60058 
P   8.67048 13.23640  4.50944 
P   4.19596  3.30657  4.50161 
P  17.77138  3.32710  4.52166 
P  13.22322  3.31213  4.54357 
P   8.74235  3.28359  4.52182 
P   4.13817  6.63152  4.62924 
P  17.76229  6.59933  4.58910 
P  13.30298  6.62329  4.49146 
P   8.80177  6.57468  4.56572 
P   4.10891  9.94566  4.48418 
P  17.80203  9.91016  4.49043 
P  13.30998  9.78186  4.54323 
P   8.77487  9.93423  4.54352 
P   2.63739  1.66243  4.63478 
P  16.34947  1.65555  4.48623 
P  11.79162  1.68474  4.55720 
P   7.25552  1.58495  4.63047 
P   2.63714  4.94403  4.49087 
P  16.37340  4.92748  4.59172 
P  11.80959  4.93771  4.51998 
P   7.16989  5.03594  4.54826 
P   2.71959  8.27425  4.54822 
P  16.34880  8.29609  4.62113 
P  11.75233  8.31576  4.57130 
P   7.10943  8.26106  4.55620 
P   2.70253 11.50569  4.62385 
P  16.34006 11.58742  4.49155 
P  11.71897 11.66187  4.55678 
P   7.22106 11.59680  4.61292 
P   1.84069  1.63497  6.65368 
P  15.51817  1.69701  6.74912 
P  11.02920  1.60694  6.64967 
P   6.49112  1.70884  6.57483 
P   1.87321  5.05474  6.75512 
P  15.43675  4.99612  6.62005 
P   6.47563  4.92246  6.65629 
P   1.94673  8.21196  6.68274 
P  15.53366  8.23003  6.57059 
P  10.95901  8.28965  6.61427 
P   6.46988  8.30578  6.69310 
P   1.90995 11.62743  6.61125 
P  15.52354 11.51932  6.75056 
P  11.00112 11.56085  6.65593 
P   6.44249 11.51939  6.58422 
62
step 10 = 
P   0.39340 13.22169  6.67217 
P  14.05141 13.22580  6.66915 
P   9.49944 13.22449  6.67058 
P   4.94835 13.22470  6.66832 
P   0.39516  3.30555  6.67091 
P  14.04983  3.30776  6.67094 
P   9.49699  3.30532  6.67123 
P   4.94610  3.30547  6.67027 
P   0.39368  6.61331  6.67057 
P  14.05312  6.61005  6.67087 
P   4.94528  6.61149  6.67029 
P   0.39394  9.91985  6.66852 
P  14.05118  9.91962  6.67108 
P   9.50179  9.91834  6.67081 
P   4.94804  9.92025  6.67140 
P   4.15972 13.22564  4.54928 
P  17.81353 13.22091  4.54931 
P  13.26272 13.22269  4.55135 
P   8.70942 13.22596  4.55097 
P   4.15875  3.30632  4.55060 
P  17.81529  3.30443  4.54837 
P  13.26211  3.30753  4.55091 
P   8.71018  3.30779  4.55071 
P   4.16018  6.61289  4.55393 
P  17.81551  6.61250  4.55158 
P  13.26326  6.61099  4.54953 
P   8.70894  6.61462  4.55038 
P   4.15825  9.91784  4.55166 
P  17.81774  9.91895  4.55030 
P  13.26011  9.91772  4.54920 
P   8.71296  9.91816  4.55069 
P   2.67224  1.65471  4.55052 
P  16.32442  1.65226  4.55210 
P  11.77590  1.65514  4.55237 
P   7.22365  1.65271  4.55094 
P   2.67141  4.95821  4.55004 
P  16.32594  4.95763  4.55017 
P  11.77545  4.95753  4.54826 
P   7.22263  4.95659  4.54898 
P   2.67009  8.26595  4.54849 
P  16.32801  8.26423  4.54948 
P  11.77328  8.26496  4.54994 
P   7.21964  8.26438  4.55103 
P   2.66794 11.57195  4.54676 
P  16.32732 11.57038  4.55057 
P  11.77406 11.57024  4.55098 
P   7.22298 11.57258  4.55200 
P   1.88211  1.65520  6.67314 
P  15.53845  1.65301  6.67120 
P  10.98719  1.65274  6.67157 
P   6.43626  1.65256  6.66929 
P   1.88387  4.95950  6.67041 
P  15.53996  4.95961  6.66910 
P   6.43760  4.95797  6.66979 
P   1.88202  8.26534  6.67083 
P  15.53961  8.26539  6.67208 
P  10.98700  8.26641  6.67068 
P   6.43618  8.26399  6.67067 
P   1.88220 11.57316  6.67167 
P  15.54021 11.57101  6.67210 
P  10.98720 11.57366  6.67026 
P   6.43244 11.57069  6.67219 
62
step 11 = 
P   0.34990 13.17627  6.70548 
P  14.07474 13.24714  6.76301 
P   9.55421 13.22700  6.64238 
P   5.03364 13.25420  6.56113 
P   0.36838  3.35457  6.70000 
P  13.95077  3.28459  6.66206 
P   9.54180  3.26191  6.61717 
P   4.96573  3.31862  6.62939 
P   0.37283  6.64829  6.72728 
P  13.98599  6.65690  6.55824 
P   4.98628  6.59309  6.72439 
P   0.46240  9.94285  6.63001 
P  14.04997  9.83740  6.64842 
P   9.48377  9.92931  6.65154 
P   4.94811  9.92632  6.61854 
P   4.14027 13.21061  4.64005 
P  17.81957 13.25665  4.49728 
P  13.28764 13.25561  4.50212 
P   8.74837 13.21552  4.59250 
P   4.12153  3.30607  4.59959 
P  17.85921  3.28177  4.57507 
P  13.30099  3.30292  4.55824 
P   8.67800  3.33198  4.57960 
P   4.18220  6.59426  4.47861 
P  17.86873  6.62567  4.51407 
P  13.22355  6.59868  4.60759 
P   8.61610  6.65457  4.53503 
P   4.20759  9.89002  4.61913 
P  17.83346  9.92774  4.61017 
P  13.21024 10.05357  4.55516 
P   8.65105  9.90209  4.55786 
P   2.70710  1.64699  4.46626 
P  16.29937  1.64897  4.61798 
P  11.76017  1.62553  4.54754 
P   7.19179  1.72047  4.47140 
P   2.70569  4.97239  4.60921 
P  16.27847  4.98777  4.50861 
P  11.74131  4.97735  4.57655 
P   7.27536  4.87723  4.54971 
P   2.62058  8.25765  4.54876 
P  16.30722  8.23237  4.47783 
P  11.79423  8.21417  4.52858 
P   7.32985  8.26771  4.54586 
P   2.63335 11.63821  4.46967 
P  16.31458 11.55334  4.60959 
P  11.82915 11.47862  4.54517 
P   7.22491 11.54836  4.49108 
P   1.92354  1.67542  6.69261 
P  15.55874  1.60901  6.59328 
P  10.94518  1.69853  6.69347 
P   6.38139  1.59629  6.76375 
P   1.89454  4.86427  6.58570 
P  15.64316  4.92310  6.71816 
P   6.39957  4.99348  6.68330 
P   1.81731  8.31872  6.65892 
P  15.54557  8.30076  6.77357 
P  11.01499  8.24316  6.72709 
P   6.40248  8.22220  6.64824 
P   1.85445 11.51888  6.73209 
P  15.55689 11.62270  6.59364 
P  10.97329 11.58646  6.68458 
P   6.42239 11.62199  6.76017 
62
step 12 = 
P   0.32301 13.14821  6.72607 
P  14.08916 13.26033  6.82101 
P   9.58806 13.22855  6.62495 
P   5.08635 13.27243  6.49488 
P   0.35183  3.38486  6.71798 
P  13.88955  3.27027  6.65657 
P   9.56949  3.23509  6.58375 
P   4.97786  3.32675  6.60411 
P   0.35995  6.66991  6.76232 
P  13.94451  6.68586  6.48863 
P   5.01163  6.58171  6.75784 
P   0.50471  9.95707  6.60621 
P  14.04922  9.78659  6.63441 
P   9.47264  9.93609  6.63963 
P   4.94816  9.93008  6.58587 
P   4.12825 13.20133  4.69614 
P  17.82331 13.27874  4.46512 
P  13.30305 13.27596  4.47169 
P   8.77244 13.20907  4.61816 
P   4.09854  3.30591  4.62987 
P  17.88635  3.26776  4.59158 
P  13.32503  3.30007  4.56277 
P   8.65812  3.34694  4.59745 
P   4.19580  6.58274  4.43206 
P  17.90162  6.63381  4.49088 
P  13.19900  6.59107  4.64348 
P   8.55872  6.67925  4.52555 
P   4.23808  9.87283  4.66084 
P  17.84317  9.93317  4.64717 
P  13.17942 10.13754  4.55885 
P   8.61278  9.89216  4.56229 
P   2.72864  1.64222  4.41418 
P  16.28389  1.64694  4.65869 
P  11.75046  1.60724  4.54455 
P   7.17209  1.76235  4.42225 
P   2.72687  4.98115  4.64578 
P  16.24913  5.00641  4.48293 
P  11.72021  4.98960  4.59403 
P   7.30796  4.82819  4.55016 
P   2.58998  8.25252  4.54893 
P  16.29437  8.21268  4.43355 
P  11.80718  8.18278  4.51538 
P   7.39796  8.26976  4.54267 
P   2.61197 11.67916  4.42203 
P  16.30670 11.54281  4.64607 
P  11.86320 11.42199  4.54158 
P   7.22609 11.53339  4.45343 
P   1.94914  1.68792  6.70464 
P  15.57127  1.58182  6.54512 
P  10.91921  1.72683  6.70700 
P   6.34749  1.56151  6.82213 
P   1.90113  4.80541  6.53335 
P  15.70694  4.90054  6.74847 
P   6.37606  5.01542  6.69165 
P   1.77732  8.35171  6.65156 
P  15.54925  8.32262  6.83629 
P  11.03229  8.22879  6.76196 
P   6.38165  8.19637  6.63438 
P   1.83731 11.48533  6.76944 
P  15.56720 11.65464  6.54516 
P  10.96469 11.59438  6.69344 
P   6.41618 11.65370  6.81454 
62
step 13 = 
P   0.32301 13.14821  6.72607 
P  14.08916 13.26033  6.82101 
P   9.58806 13.22855  6.62495 
P   5.08635 13.27243  6.49488 
P   0.35183  3.38486  6.71798 
P  13.88955  3.27027  6.65657 
P   9.56949  3.23509  6.58375 
P   4.97786  3.32675  6.60411 
P   0.35995  6.66991  6.76232 
P  13.94451  6.68586  6.48863 
P   5.01163  6.58171  6.75784 
P   0.50471  9.95707  6.60621 
P  14.04922  9.78659  6.63441 
P   9.47264  9.93609  6.63963 
P   4.94816  9.93008  6.58587 
P   4.12825 13.20133  4.69614 
P  17.82331 13.27874  4.46512 
P  13.30305 13.27596  4.47169 
P   8.77244 13.20907  4.61816 
P   4.09854  3.30591  4.62987 
P  17.88635  3.26776  4.59158 
P  13.32503  3.30007  4.56277 
P   8.65812  3.34694  4.59745 
P   4.19580  6.58274  4.43206 
P  17.90162  6.63381  4.49088 
P  13.19900  6.59107  4.64348 
P   8.55872  6.67925  4.52555 
P   4.23808  9.87283  4.66084 
P  17.84317  9.93317  4.64717 
P  13.17942 10.13754  4.55885 
P   8.61278  9.89216  4.56229 
P   2.72864  1.64222  4.41418 
P  16.28389  1.64694  4.65869 
P  11.75046  1.60724  4.54455 
P   7.17209  1.76235  4.42225 
P   2.72687  4.98115  4.64578 
P  16.24913  5.00641  4.48293 
P  11.72021  4.98960  4.59403 
P   7.30796  4.82819  4.55016 
P   2.58998  8.25252  4.54893 
P  16.29437  8.21268  4.43355 
P  11.80718  8.18278  4.51538 
P   7.39796  8.26976  4.54267 
P   2.61197 11.67916  4.42203 
P  16.30670 11.54281  4.64607 
P  11.86320 11.42199  4.54158 
P   7.22609 11.53339  4.45343 
P   1.94914  1.68792  6.70464 
P  15.57127  1.58182  6.54512 
P  10.91921  1.72683  6.70700 
P   6.34749  1.56151  6.82213 
P   1.90113  4.80541  6.53335 
P  15.70694  4.90054  6.74847 
P   6.37606  5.01542  6.69165 
P   1.77732  8.35171  6.65156 
P  15.54925  8.32262  6.83629 
P  11.03229  8.22879  6.76196 
P   6.38165  8.19637  6.63438 
P   1.83731 11.48533  6.76944 
P  15.56720 11.65464  6.54516 
P  10.96469 11.59438  6.69344 
P   6.41618 11.65370  6.81454 
62
step 14 = 
P   0.34990 13.17627  6.70548 
P  14.07474 13.24714  6.76301 
P   9.55421 13.22700  6.64238 
P   5.03364 13.25420  6.56113 
P   0.36838  3.35457  6.70000 
P  13.95077  3.28459  6.66206 
P   9.54180  3.26191  6.61717 
P   4.96573  3.31862  6.62939 
P   0.37283  6.64829  6.72728 
P  13.98599  6.65690  6.55824 
P   4.98628  6.59309  6.72439 
P   0.46240  9.94285  6.63001 
P  14.04997  9.83740  6.64842 
P   9.48377  9.92931  6.65154 
P   4.94811  9.92632  6.61854 
P   4.14027 13.21061  4.64005 
P  17.81957 13.25665  4.49728 
P  13.28764 13.25561  4.50212 
P   8.74837 13.21552  4.59250 
P   4.12153  3.30607  4.59959 
P  17.85921  3.28177  4.57507 
P  13.30099  3.30292  4.55824 
P   8.67800  3.33198  4.57960 
P   4.18220  6.59426  4.47861 
P  17.86873  6.62567  4.51407 
P  13.22355  6.59868  4.60759 
P   8.61610  6.65457  4.53503 
P   4.20759  9.89002  4.61913 
P  17.83346  9.92774  4.61017 
P  13.21024 10.05357  4.55516 
P   8.65105  9.90209  4.55786 
P   2.70710  1.64699  4.46626 
P  16.29937  1.64897  4.61798 
P  11.76017  1.62553  4.54754 
P   7.19179  1.72047  4.47140 
P   2.70569  4.97239  4.60921 
P  16.27847  4.98777  4.50861 
P  11.74131  4.97735  4.57655 
P   7.27536  4.87723  4.54971 
P   2.62058  8.25765  4.54876 
P  16.30722  8.23237  4.47783 
P  11.79423  8.21417  4.52858 
P   7.32985  8.26771  4.54586 
P   2.63335 11.63821  4.46967 
P  16.31458 11.55334  4.60959 
P  11.82915 11.47862  4.54517 
P   7.22491 11.54836  4.49108 
P   1.92354  1.67542  6.69261 
P  15.55874  1.60901  6.59328 
P  10.94518  1.69853  6.69347 
P   6.38139  1.59629  6.76375 
P   1.89454  4.86427  6.58570 
P  15.64316  4.92310  6.71816 
P   6.39957  4.99348  6.68330 
P   1.81731  8.31872  6.65892 
P  15.54557  8.30076  6.77357 
P  11.01499  8.24316  6.72709 
P   6.40248  8.22220  6.64824 
P   1.85445 11.51888  6.73209 
P  15.55689 11.62270  6.59364 
P  10.97329 11.58646  6.68458 
P   6.42239 11.62199  6.76017 
62
step 15 = 
P   0.39340 13.22169  6.67217 
P  14.05141 13.22580  6.66915 
P   9.49944 13.22449  6.67058 
P   4.94835 13.22470  6.66832 
P   0.39516  3.30555  6.67091 
P  14.04983  3.30776  6.67094 
P   9.49699  3.30532  6.67123 
P   4.94610  3.30547  6.67027 
P   0.39368  6.61331  6.67057 
P  14.05312  6.61005  6.67087 
P   4.94528  6.61149  6.67029 
P   0.39394  9.91985  6.66852 
P  14.05118  9.91962  6.67108 
P   9.50179  9.91834  6.67081 
P   4.94804  9.92025  6.67140 
P   4.15972 13.22564  4.54928 
P  17.81353 13.22091  4.54931 
P  13.26272 13.22269  4.55135 
P   8.70942 13.22596  4.55097 
P   4.15875  3.30632  4.55060 
P  17.81529  3.30443  4.54837 
P  13.26211  3.30753  4.55091 
P   8.71018  3.30779  4.55071 
P   4.16018  6.61289  4.55393 
P  17.81551  6.61250  4.55158 
P  13.26326  6.61099  4.54953 
P   8.70894  6.61462  4.55038 
P   4.15825  9.91784  4.55166 
P  17.81774  9.91895  4.55030 
P  13.26011  9.91772  4.54920 