62
step 0 = 
P   0.39340 13.22169  6.67217 
P  14.05141 13.22580  6.66915 
P   9.49944 13.22449  6.67058 
P   4.94835 13.22470  6.66832 
P   0.39516  3.30555  6.67091 
P  14.04983  3.30776  6.67094 
P   9.49699  3.30532  6.67123 
P   4.94610  3.30547  6.67027 
P   0.39368  6.61331  6.67057 
P  14.05312  6.61005  6.67087 
P   4.94528  6.61149  6.67029 
P   0.39394  9.91985  6.66852 
P  14.05118  9.91962  6.67108 
P   9.50179  9.91834  6.67081 
P   4.94804  9.92025  6.67140 
P   4.15972 13.22564  4.54928 
P  17.81353 13.22091  4.54931 
P  13.26272 13.22269  4.55135 
P   8.70942 13.22596  4.55097 
P   4.15875  3.30632  4.55060 
P  17.81529  3.30443  4.54837 
P  13.26211  3.30753  4.55091 
P   8.71018  3.30779  4.55071 
P   4.16018  6.61289  4.55393 
P  17.81551  6.61250  4.55158 
P  13.26326  6.61099  4.54953 
P   8.70894  6.61462  4.55038 
P   4.15825  9.91784  4.55166 
P  17.81774  9.91895  4.55030 
P  13.26011  9.91772  4.54920 
P   8.71296  9.91816  4.55069 
P   2.67224  1.65471  4.55052 
P  16.32442  1.65226  4.55210 
P  11.77590  1.65514  4.55237 
P   7.22365  1.65271  4.55094 
P   2.67141  4.95821  4.55004 
P  16.32594  4.95763  4.55017 
P  11.77545  4.95753  4.54826 
P   7.22263  4.95659  4.54898 
P   2.67009  8.26595  4.54849 
P  16.32801  8.26423  4.54948 
P  11.77328  8.26496  4.54994 
P   7.21964  8.26438  4.55103 
P   2.66794 11.57195  4.54676 
P  16.32732 11.57038  4.55057 
P  11.77406 11.57024  4.55098 
P   7.22298 11.57258  4.55200 
P   1.88211  1.65520  6.67314 
P  15.53845  1.65301  6.67120 
P  10.98719  1.65274  6.67157 
P   6.43626  1.65256  6.66929 
P   1.88387  4.95950  6.67041 
P  15.53996  4.95961  6.66910 
P   6.43760  4.95797  6.66979 
P   1.88202  8.26534  6.67083 
P  15.53961  8.26539  6.67208 
P  10.98700  8.26641  6.67068 
P   6.43618  8.26399  6.67067 
P   1.88220 11.57316  6.67167 
P  15.54021 11.57101  6.67210 
P  10.98720 11.57366  6.67026 
P   6.43244 11.57069  6.67219 
62
step 1 = 
P   0.40217 13.21383  6.73843 
P  14.06887 13.26747  6.55022 
P   9.43384 13.18929  6.61661 
P   4.91477 13.05510  6.76401 
P   0.32078  3.36866  6.72019 
P  14.05981  3.24402  6.71306 
P   9.52488  3.25702  6.69178 
P   4.93270  3.27090  6.66693 
P   0.43720  6.66280  6.58420 
P  14.07236  6.58118  6.67457 
P   4.88909  6.57330  6.65767 
P   0.32970  9.90318  6.68617 
P  14.03628  9.85263  6.75178 
P   9.57034  9.94540  6.66232 
P   4.92732  9.91618  6.63717 
P   4.16424 13.12898  4.47677 
P  17.78399 13.19750  4.57608 
P  13.28301 13.22325  4.57477 
P   8.82677 13.24477  4.58874 
P   4.18960  3.30745  4.51442 
P  17.86461  3.33358  4.50328 
P  13.28140  3.24573  4.60060 
P   8.73101  3.33763  4.56165 
P   4.16152  6.60843  4.64510 
P  17.81278  6.57238  4.50613 
P  13.33049  6.58110  4.50559 
P   8.66258  6.66567  4.52687 
P   4.17286  9.81992  4.57243 
P  17.78534  9.97197  4.58027 
P  13.22702 10.01844  4.53503 
P   8.65417  9.89623  4.59128 
P   2.63757  1.67781  4.58787 
P  16.34827  1.62974  4.49562 
P  11.74203  1.68701  4.56755 
P   7.19549  1.71563  4.54970 
P   2.70344  5.02035  4.58553 
P  16.33331  4.95501  4.58200 
P  11.74206  4.94500  4.55417 
P   7.26389  4.87540  4.52852 
P   2.70229  8.30057  4.54099 
P  16.27541  8.29845  4.50914 
P  11.77913  8.25456  4.51715 
P   7.28181  8.22951  4.52118 
P   2.68364 11.71293  4.61736 
P  16.38540 11.56030  4.54945 
P  11.82460 11.52572  4.53274 
P   7.15869 11.50359  4.53368 
P   1.84913  1.62893  6.61543 
P  15.52580  1.74880  6.66891 
P  11.03032  1.70354  6.66535 
P   6.41537  1.69033  6.61198 
P   1.89978  4.94081  6.74193 
P  15.51485  4.95495  6.66840 
P   6.46185  4.96374  6.63843 
P   1.88309  8.20401  6.61190 
P  15.46515  8.31862  6.73757 
P  10.95646  8.25149  6.67574 
P   6.46648  8.30446  6.70584 
P   1.93563 11.60406  6.57889 
P  15.55580 11.54547  6.67729 
P  10.93451 11.57933  6.69986 
P   6.42090 11.72419  6.68917 
62
step 2 = 
P   0.40760 13.20897  6.77939 
P  14.07966 13.29322  6.47672 
P   9.39329 13.16754  6.58325 
P   4.89401 12.95028  6.82315 
P   0.27481  3.40767  6.75065 
P  14.06599  3.20463  6.73910 
P   9.54211  3.22718  6.70448 
P   4.92443  3.24953  6.66486 
P   0.46410  6.69339  6.53081 
P  14.08426  6.56333  6.67685 
P   4.85437  6.54970  6.64988 
P   0.28999  9.89287  6.69707 
P  14.02707  9.81122  6.80166 
P   9.61271  9.96212  6.65707 
P   4.91452  9.91367  6.61602 
P   4.16703 13.06924  4.43196 
P  17.76573 13.18303  4.59262 
P  13.29556 13.22359  4.58924 
P   8.89930 13.25640  4.61208 
P   4.20867  3.30815  4.49207 
P  17.89509  3.35159  4.47542 
P  13.29332  3.20753  4.63131 
P   8.74389  3.35608  4.56841 
P   4.16234  6.60568  4.70145 
P  17.81109  6.54758  4.47805 
P  13.37203  6.56264  4.47843 
P   8.63394  6.69721  4.51235 
P   4.18189  9.75940  4.58527 
P  17.76531 10.00473  4.59880 
P  13.20657 10.08069  4.52628 
P   8.61783  9.88268  4.61636 
P   2.61614  1.69208  4.61095 
P  16.36300  1.61582  4.46072 
P  11.72110  1.70671  4.57693 
P   7.17809  1.75452  4.54893 
P   2.72323  5.05875  4.60747 
P  16.33787  4.95339  4.60168 
P  11.72142  4.93725  4.55782 
P   7.28939  4.82522  4.51587 
P   2.72219  8.32197  4.53636 
P  16.24291  8.31960  4.48421 
P  11.78275  8.24814  4.49689 
P   7.32023  8.20795  4.50273 
P   2.69335 11.80007  4.66098 
P  16.42130 11.55407  4.54876 
P  11.85583 11.49820  4.52146 
P   7.11895 11.46096  4.52235 
P   1.82874  1.61269  6.57977 
P  15.51798  1.80800  6.66750 
P  11.05698  1.73495  6.66150 
P   6.40245  1.71368  6.57656 
P   1.90961  4.92926  6.78612 
P  15.49933  4.95207  6.66797 
P   6.47684  4.96731  6.61904 
P   1.88375  8.16610  6.57548 
P  15.41914  8.35152  6.77805 
P  10.93758  8.24227  6.67887 
P   6.48521  8.32948  6.72758 
P   1.96864 11.62315  6.52154 
P  15.56543 11.52969  6.68050 
P  10.90194 11.58283  6.71815 
P   6.41377 11.81906  6.69966 
62
step 3 = 
P   0.40760 13.20897  6.77939 
P  14.07966 13.29322  6.47672 
P   9.39329 13.16754  6.58325 
P   4.89401 12.95028  6.82315 
P   0.27481  3.40767  6.75065 
P  14.06599  3.20463  6.73910 
P   9.54211  3.22718  6.70448 
P   4.92443  3.24953  6.66486 
P   0.46410  6.69339  6.53081 
P  14.08426  6.56333  6.67685 
P   4.85437  6.54970  6.64988 
P   0.28999  9.89287  6.69707 
P  14.02707  9.81122  6.80166 
P   9.61271  9.96212  6.65707 
P   4.91452  9.91367  6.61602 
P   4.16703 13.06924  4.43196 
P  17.76573 13.18303  4.59262 
P  13.29556 13.22359  4.58924 
P   8.89930 13.25640  4.61208 
P   4.20867  3.30815  4.49207 
P  17.89509  3.35159  4.47542 
P  13.29332  3.20753  4.63131 
P   8.74389  3.35608  4.56841 
P   4.16234  6.60568  4.70145 
P  17.81109  6.54758  4.47805 
P  13.37203  6.56264  4.47843 
P   8.63394  6.69721  4.51235 
P   4.18189  9.75940  4.58527 
P  17.76531 10.00473  4.59880 
P  13.20657 10.08069  4.52628 
P   8.61783  9.88268  4.61636 
P   2.61614  1.69208  4.61095 
P  16.36300  1.61582  4.46072 
P  11.72110  1.70671  4.57693 
P   7.17809  1.75452  4.54893 
P   2.72323  5.05875  4.60747 
P  16.33787  4.95339  4.60168 
P  11.72142  4.93725  4.55782 
P   7.28939  4.82522  4.51587 
P   2.72219  8.32197  4.53636 
P  16.24291  8.31960  4.48421 
P  11.78275  8.24814  4.49689 
P   7.32023  8.20795  4.50273 
P   2.69335 11.80007  4.66098 
P  16.42130 11.55407  4.54876 
P  11.85583 11.49820  4.52146 
P   7.11895 11.46096  4.52235 
P   1.82874  1.61269  6.57977 
P  15.51798  1.80800  6.66750 
P  11.05698  1.73495  6.66150 
P   6.40245  1.71368  6.57656 
P   1.90961  4.92926  6.78612 
P  15.49933  4.95207  6.66797 
P   6.47684  4.96731  6.61904 
P   1.88375  8.16610  6.57548 
P  15.41914  8.35152  6.77805 
P  10.93758  8.24227  6.67887 
P   6.48521  8.32948  6.72758 
P   1.96864 11.62315  6.52154 
P  15.56543 11.52969  6.68050 
P  10.90194 11.58283  6.71815 
P   6.41377 11.81906  6.69966 
62
step 4 = 
P   0.40217 13.21383  6.73843 
P  14.06887 13.26747  6.55022 
P   9.43384 13.18929  6.61661 
P   4.91477 13.05510  6.76401 
P   0.32078  3.36866  6.72019 
P  14.05981  3.24402  6.71306 
P   9.52488  3.25702  6.69178 
P   4.93270  3.27090  6.66693 
P   0.43720  6.66280  6.58420 
P  14.07236  6.58118  6.67457 
P   4.88909  6.57330  6.65767 
P   0.32970  9.90318  6.68617 
P  14.03628  9.85263  6.75178 
P   9.57034  9.94540  6.66232 
P   4.92732  9.91618  6.63717 
P   4.16424 13.12898  4.47677 
P  17.78399 13.19750  4.57608 
P  13.28301 13.22325  4.57477 
P   8.82677 13.24477  4.58874 
P   4.18960  3.30745  4.51442 
P  17.86461  3.33358  4.50328 
P  13.28140  3.24573  4.60060 
P   8.73101  3.33763  4.56165 
P   4.16152  6.60843  4.64510 
P  17.81278  6.57238  4.50613 
P  13.33049  6.58110  4.50559 
P   8.66258  6.66567  4.52687 
P   4.17286  9.81992  4.57243 
P  17.78534  9.97197  4.58027 
P  13.22702 10.01844  4.53503 
P   8.65417  9.89623  4.59128 
P   2.63757  1.67781  4.58787 
P  16.34827  1.62974  4.49562 
P  11.74203  1.68701  4.56755 
P   7.19549  1.71563  4.54970 
P   2.70344  5.02035  4.58553 
P  16.33331  4.95501  4.58200 
P  11.74206  4.94500  4.55417 
P   7.26389  4.87540  4.52852 
P   2.70229  8.30057  4.54099 
P  16.27541  8.29845  4.50914 
P  11.77913  8.25456  4.51715 
P   7.28181  8.22951  4.52118 
P   2.68364 11.71293  4.61736 
P  16.38540 11.56030  4.54945 
P  11.82460 11.52572  4.53274 
P   7.15869 11.50359  4.53368 
P   1.84913  1.62893  6.61543 
P  15.52580  1.74880  6.66891 
P  11.03032  1.70354  6.66535 
P   6.41537  1.69033  6.61198 
P   1.89978  4.94081  6.74193 
P  15.51485  4.95495  6.66840 
P   6.46185  4.96374  6.63843 
P   1.88309  8.20401  6.61190 
P  15.46515  8.31862  6.73757 
P  10.95646  8.25149  6.67574 
P   6.46648  8.30446  6.70584 
P   1.93563 11.60406  6.57889 
P  15.55580 11.54547  6.67729 
P  10.93451 11.57933  6.69986 
P   6.42090 11.72419  6.68917 
62
step 5 = 
P   0.39340 13.22169  6.67217 
P  14.05141 13.22580  6.66915 
P   9.49944 13.22449  6.67058 
P   4.94835 13.22470  6.66832 
P   0.39516  3.30555  6.67091 
P  14.04983  3.30776  6.67094 
P   9.49699  3.30532  6.67123 
P   4.94610  3.30547  6.67027 
P   0.39368  6.61331  6.67057 
P  14.05312  6.61005  6.67087 
P   4.94528  6.61149  6.67029 
P   0.39394  9.91985  6.66852 
P  14.05118  9.91962  6.67108 
P   9.50179  9.91834  6.67081 
P   4.94804  9.92025  6.67140 
P   4.15972 13.22564  4.54928 
P  17.81353 13.22091  4.54931 
P  13.26272 13.22269  4.55135 
P   8.70942 13.22596  4.55097 
P   4.15875  3.30632  4.55060 
P  17.81529  3.30443  4.54837 
P  13.26211  3.30753  4.55091 
P   8.71018  3.30779  4.55071 
P   4.16018  6.61289  4.55393 
P  17.81551  6.61250  4.55158 
P  13.26326  6.61099  4.54953 
P   8.70894  6.61462  4.55038 
P   4.15825  9.91784  4.55166 
P  17.81774  9.91895  4.55030 
P  13.26011  9.91772  4.54920 
P   8.71296  9.91816  4.55069 
P   2.67224  1.65471  4.55052 
P  16.32442  1.65226  4.55210 
P  11.77590  1.65514  4.55237 
P   7.22365  1.65271  4.55094 
P   2.67141  4.95821  4.55004 
P  16.32594  4.95763  4.55017 
P  11.77545  4.95753  4.54826 
P   7.22263  4.95659  4.54898 
P   2.67009  8.26595  4.54849 
P  16.32801  8.26423  4.54948 
P  11.77328  8.26496  4.54994 
P   7.21964  8.26438  4.55103 
P   2.66794 11.57195  4.54676 
P  16.32732 11.57038  4.55057 
P  11.77406 11.57024  4.55098 
P   7.22298 11.57258  4.55200 
P   1.88211  1.65520  6.67314 
P  15.53845  1.65301  6.67120 
P  10.98719  1.65274  6.67157 
P   6.43626  1.65256  6.66929 
P   1.88387  4.95950  6.67041 
P  15.53996  4.95961  6.66910 
P   6.43760  4.95797  6.66979 
P   1.88202  8.26534  6.67083 
P  15.53961  8.26539  6.67208 
P  10.98700  8.26641  6.67068 
P   6.43618  8.26399  6.67067 
P   1.88220 11.57316  6.67167 
P  15.54021 11.57101  6.67210 
P  10.98720 11.57366  6.67026 
P   6.43244 11.57069  6.67219 
62
step 6 = 
P   0.38463 13.22954  6.60590 
P  14.03395 13.18413  6.78807 
P   9.56504 13.25968  6.72456 
P   4.98193 13.39430  6.57263 
P   0.46953  3.24244  6.62163 
P  14.03984  3.37149  6.62881 
P   9.46911  3.35361  6.65069 
P   4.95949  3.34005  6.67362 
P   0.35016  6.56382  6.75695 
P  14.03388  6.63893  6.66718 
P   5.00146  6.64968  6.68290 
P   0.45818  9.93653  6.65087 
P  14.06608  9.98662  6.59038 
P   9.43324  9.89128  6.67930 
P   4.96876  9.92432  6.70562 
P   4.15521 13.32230  4.62179 
P  17.84306 13.24432  4.52254 
P  13.24242 13.22213  4.52793 
P   8.59207 13.20715  4.51320 
P   4.12789  3.30519  4.58677 
P  17.76597  3.27529  4.59345 
P  13.24282  3.36932  4.50122 
P   8.68934  3.27794  4.53977 
P   4.15885  6.61735  4.46275 
P  17.81824  6.65263  4.59703 
P  13.19604  6.64087  4.59347 
P   8.75529  6.56358  4.57388 
P   4.14364 10.01575  4.53089 
P  17.85015  9.86593  4.52033 
P  13.29321  9.81699  4.56336 
P   8.77174  9.94009  4.51010 
P   2.70692  1.63161  4.51318 
P  16.30057  1.67479  4.60858 
P  11.80976  1.62327  4.53719 
P   7.25182  1.58979  4.55218 
P   2.63939  4.89608  4.51455 
P  16.31856  4.96025  4.51833 
P  11.80884  4.97007  4.54236 
P   7.18136  5.03778  4.56945 
P   2.63789  8.23133  4.55598 
P  16.38061  8.23001  4.58981 
P  11.76742  8.27536  4.58273 
P   7.15747  8.29926  4.58089 
P   2.65224 11.43097  4.47617 
P  16.26923 11.58047  4.55169 
P  11.72352 11.61477  4.56922 
P   7.28728 11.64156  4.57032 
P   1.91510  1.68147  6.73085 
P  15.55110  1.55722  6.67349 
P  10.94406  1.60193  6.67779 
P   6.45715  1.61479  6.72660 
P   1.86797  4.97819  6.59890 
P  15.56507  4.96427  6.66980 
P   6.41335  4.95220  6.70116 
P   1.88096  8.32667  6.72976 
P  15.61407  8.21216  6.60659 
P  11.01755  8.28132  6.66562 
P   6.40588  8.22352  6.63550 
P   1.82878 11.54226  6.76446 
P  15.52463 11.59654  6.66691 
P  11.03990 11.56799  6.64065 
P   6.44397 11.41718  6.65521 
62
step 7 = 
P   0.37921 13.23440  6.56494 
P  14.02316 13.15838  6.86157 
P   9.60558 13.28143  6.75792 
P   5.00269 13.49911  6.51349 
P   0.51550  3.20343  6.59117 
P  14.03367  3.41088  6.60278 
P   9.45188  3.38345  6.63799 
P   4.96777  3.36142  6.67569 
P   0.32326  6.53323  6.81034 
P  14.02199  6.65678  6.66490 
P   5.03619  6.67328  6.69069 
P   0.49788  9.94683  6.63996 
P  14.07528 10.02803  6.54050 
P   9.39088  9.87456  6.68454 
P   4.98156  9.92683  6.72678 
P   4.15241 13.38204  4.66660 
P  17.86132 13.25880  4.50599 
P  13.22988 13.22179  4.51346 
P   8.51954 13.19552  4.48986 
P   4.10882  3.30449  4.60913 
P  17.73549  3.25728  4.62131 
P  13.23090  3.40752  4.47050 
P   8.67646  3.25949  4.53301 
P   4.15802  6.62010  4.40640 
P  17.81993  6.67742  4.62512 
P  13.15450  6.65934  4.62062 
P   8.78394  6.53203  4.58841 
P   4.13461 10.07627  4.51805 
P  17.87018  9.83316  4.50180 
P  13.31366  9.75475  4.57211 
P   8.80808  9.95364  4.48501 
P   2.72835  1.61733  4.49010 
P  16.28583  1.68871  4.64349 
P  11.83069  1.60357  4.52780 
P   7.26922  1.55090  4.55295 
P   2.61960  4.85768  4.49261 
P  16.31400  4.96187  4.49866 
P  11.82948  4.97781  4.53870 
P   7.15586  5.08796  4.58210 
P   2.61798  8.20994  4.56062 
P  16.41311  8.20886  4.61474 
P  11.76380  8.28179  4.60299 
P   7.11905  8.32082  4.59934 
P   2.64254 11.34383  4.43254 
P  16.23334 11.58670  4.55238 
P  11.69228 11.64229  4.58049 
P   7.32701 11.68420  4.58165 
P   1.93549  1.69771  6.76652 
P  15.55892  1.49802  6.67490 
P  10.91740  1.57053  6.68163 
P   6.47007  1.59145  6.76202 
P   1.85814  4.98974  6.55470 
P  15.58059  4.96715  6.67024 
P   6.39836  4.94863  6.72054 
P   1.88030  8.36458  6.76618 
P  15.66009  8.17926  6.56611 
P  11.03642  8.29054  6.66249 
P   6.38715  8.19850  6.61376 
P   1.79576 11.52316  6.82180 
P  15.51500 11.61233  6.66370 
P  11.07247 11.56448  6.62236 
P   6.45111 11.32231  6.64472 
62
step 8 = 
P   0.37921 13.23440  6.56494 
P  14.02316 13.15838  6.86157 
P   9.60558 13.28143  6.75792 
P   5.00269 13.49911  6.51349 
P   0.51550  3.20343  6.59117 
P  14.03367  3.41088  6.60278 
P   9.45188  3.38345  6.63799 
P   4.96777  3.36142  6.67569 
P   0.32326  6.53323  6.81034 
P  14.02199  6.65678  6.66490 
P   5.03619  6.67328  6.69069 
P   0.49788  9.94683  6.63996 
P  14.07528 10.02803  6.54050 
P   9.39088  9.87456  6.68454 
P   4.98156  9.92683  6.72678 
P   4.15241 13.38204  4.66660 
P  17.86132 13.25880  4.50599 
P  13.22988 13.22179  4.51346 
P   8.51954 13.19552  4.48986 
P   4.10882  3.30449  4.60913 
P  17.73549  3.25728  4.62131 
P  13.23090  3.40752  4.47050 
P   8.67646  3.25949  4.53301 
P   4.15802  6.62010  4.40640 
P  17.81993  6.67742  4.62512 
P  13.15450  6.65934  4.62062 
P   8.78394  6.53203  4.58841 
P   4.13461 10.07627  4.51805 
P  17.87018  9.83316  4.50180 
P  13.31366  9.75475  4.57211 
P   8.80808  9.95364  4.48501 
P   2.72835  1.61733  4.49010 
P  16.28583  1.68871  4.64349 
P  11.83069  1.60357  4.52780 
P   7.26922  1.55090  4.55295 
P   2.61960  4.85768  4.49261 
P  16.31400  4.96187  4.49866 
P  11.82948  4.97781  4.53870 
P   7.15586  5.08796  4.58210 
P   2.61798  8.20994  4.56062 
P  16.41311  8.20886  4.61474 
P  11.76380  8.28179  4.60299 
P   7.11905  8.32082  4.59934 
P   2.64254 11.34383  4.43254 
P  16.23334 11.58670  4.55238 
P  11.69228 11.64229  4.58049 
P   7.32701 11.68420  4.58165 
P   1.93549  1.69771  6.76652 
P  15.55892  1.49802  6.67490 
P  10.91740  1.57053  6.68163 
P   6.47007  1.59145  6.76202 
P   1.85814  4.98974  6.55470 
P  15.58059  4.96715  6.67024 
P   6.39836  4.94863  6.72054 
P   1.88030  8.36458  6.76618 
P  15.66009  8.17926  6.56611 
P  11.03642  8.29054  6.66249 
P   6.38715  8.19850  6.61376 
P   1.79576 11.52316  6.82180 
P  15.51500 11.61233  6.66370 
P  11.07247 11.56448  6.62236 
P   6.45111 11.32231  6.64472 
62
step 9 = 
P   0.38463 13.22954  6.60590 
P  14.03395 13.18413  6.78807 
P   9.56504 13.25968  6.72456 
P   4.98193 13.39430  6.57263 
P   0.46953  3.24244  6.62163 
P  14.03984  3.37149  6.62881 
P   9.46911  3.35361  6.65069 
P   4.95949  3.34005  6.67362 
P   0.35016  6.56382  6.75695 
P  14.03388  6.63893  6.66718 
P   5.00146  6.64968  6.68290 
P   0.45818  9.93653  6.65087 
P  14.06608  9.98662  6.59038 
P   9.43324  9.89128  6.67930 
P   4.96876  9.92432  6.70562 
P   4.15521 13.32230  4.62179 
P  17.84306 13.24432  4.52254 
P  13.24242 13.22213  4.52793 
P   8.59207 13.20715  4.51320 
P   4.12789  3.30519  4.58677 
P  17.76597  3.27529  4.59345 
P  13.24282  3.36932  4.50122 
P   8.68934  3.27794  4.53977 
P   4.15885  6.61735  4.46275 
P  17.81824  6.65263  4.59703 
P  13.19604  6.64087  4.59347 
P   8.75529  6.56358  4.57388 
P   4.14364 10.01575  4.53089 
P  17.85015  9.86593  4.52033 
P  13.29321  9.81699  4.56336 
P   8.77174  9.94009  4.51010 
P   2.70692  1.63161  4.51318 
P  16.30057  1.67479  4.60858 
P  11.80976  1.62327  4.53719 
P   7.25182  1.58979  4.55218 
P   2.63939  4.89608  4.51455 
P  16.31856  4.96025  4.51833 
P  11.80884  4.97007  4.54236 
P   7.18136  5.03778  4.56945 
P   2.63789  8.23133  4.55598 
P  16.38061  8.23001  4.58981 
P  11.76742  8.27536  4.58273 
P   7.15747  8.29926  4.58089 
P   2.65224 11.43097  4.47617 
P  16.26923 11.58047  4.55169 
P  11.72352 11.61477  4.56922 
P   7.28728 11.64156  4.57032 
P   1.91510  1.68147  6.73085 
P  15.55110  1.55722  6.67349 
P  10.94406  1.60193  6.67779 
P   6.45715  1.61479  6.72660 
P   1.86797  4.97819  6.59890 
P  15.56507  4.96427  6.66980 
P   6.41335  4.95220  6.70116 
P   1.88096  8.32667  6.72976 
P  15.61407  8.21216  6.60659 
P  11.01755  8.28132  6.66562 
P   6.40588  8.22352  6.63550 
P   1.82878 11.54226  6.76446 
P  15.52463 11.59654  6.66691 
P  11.03990 11.56799  6.64065 
P   6.44397 11.41718  6.65521 
62
step 10 = 
P   0.39340 13.22169  6.67217 
P  14.05141 13.22580  6.66915 
P   9.49944 13.22449  6.67058 
P   4.94835 13.22470  6.66832 
P   0.39516  3.30555  6.67091 
P  14.04983  3.30776  6.67094 
P   9.49699  3.30532  6.67123 
P   4.94610  3.30547  6.67027 
P   0.39368  6.61331  6.67057 
P  14.05312  6.61005  6.67087 
P   4.94528  6.61149  6.67029 
P   0.39394  9.91985  6.66852 
P  14.05118  9.91962  6.67108 
P   9.50179  9.91834  6.67081 
P   4.94804  9.92025  6.67140 
P   4.15972 13.22564  4.54928 
P  17.81353 13.22091  4.54931 
P  13.26272 13.22269  4.55135 
P   8.70942 13.22596  4.55097 
P   4.15875  3.30632  4.55060 
P  17.81529  3.30443  4.54837 
P  13.26211  3.30753  4.55091 
P   8.71018  3.30779  4.55071 
P   4.16018  6.61289  4.55393 
P  17.81551  6.61250  4.55158 
P  13.26326  6.61099  4.54953 
P   8.70894  6.61462  4.55038 
P   4.15825  9.91784  4.55166 
P  17.81774  9.91895  4.55030 
P  13.26011  9.91772  4.54920 
P   8.71296  9.91816  4.55069 
P   2.67224  1.65471  4.55052 
P  16.32442  1.65226  4.55210 
P  11.77590  1.65514  4.55237 
P   7.22365  1.65271  4.55094 
P   2.67141  4.95821  4.55004 
P  16.32594  4.95763  4.55017 
P  11.77545  4.95753  4.54826 
P   7.22263  4.95659  4.54898 
P   2.67009  8.26595  4.54849 
P  16.32801  8.26423  4.54948 
P  11.77328  8.26496  4.54994 
P   7.21964  8.26438  4.55103 
P   2.66794 11.57195  4.54676 
P  16.32732 11.57038  4.55057 
P  11.77406 11.57024  4.55098 
P   7.22298 11.57258  4.55200 
P   1.88211  1.65520  6.67314 
P  15.53845  1.65301  6.67120 
P  10.98719  1.65274  6.67157 
P   6.43626  1.65256  6.66929 
P   1.88387  4.95950  6.67041 
P  15.53996  4.95961  6.66910 
P   6.43760  4.95797  6.66979 
P   1.88202  8.26534  6.67083 
P  15.53961  8.26539  6.67208 
P  10.98700  8.26641  6.67068 
P   6.43618  8.26399  6.67067 
P   1.88220 11.57316  6.67167 
P  15.54021 11.57101  6.67210 
P  10.98720 11.57366  6.67026 
P   6.43244 11.57069  6.67219 
62
step 11 = 
P   0.40217 13.21383  6.73843 
P  14.06887 13.26747  6.55022 
P   9.43384 13.18929  6.61661 
P   4.91477 13.05510  6.76401 
P   0.32078  3.36866  6.72019 
P  14.05981  3.24402  6.71306 
P   9.52488  3.25702  6.69178 
P   4.93270  3.27090  6.66693 
P   0.43720  6.66280  6.58420 
P  14.07236  6.58118  6.67457 
P   4.88909  6.57330  6.65767 
P   0.32970  9.90318  6.68617 
P  14.03628  9.85263  6.75178 
P   9.57034  9.94540  6.66232 
P   4.92732  9.91618  6.63717 
P   4.16424 13.12898  4.47677 
P  17.78399 13.19750  4.57608 
P  13.28301 13.22325  4.57477 
P   8.82677 13.24477  4.58874 
P   4.18960  3.30745  4.51442 
P  17.86461  3.33358  4.50328 
P  13.28140  3.24573  4.60060 
P   8.73101  3.33763  4.56165 
P   4.16152  6.60843  4.64510 
P  17.81278  6.57238  4.50613 
P  13.33049  6.58110  4.50559 
P   8.66258  6.66567  4.52687 
P   4.17286  9.81992  4.57243 
P  17.78534  9.97197  4.58027 
P  13.22702 10.01844  4.53503 
P   8.65417  9.89623  4.59128 
P   2.63757  1.67781  4.58787 
P  16.34827  1.62974  4.49562 
P  11.74203  1.68701  4.56755 
P   7.19549  1.71563  4.54970 
P   2.70344  5.02035  4.58553 
P  16.33331  4.95501  4.58200 
P  11.74206  4.94500  4.55417 
P   7.26389  4.87540  4.52852 
P   2.70229  8.30057  4.54099 
P  16.27541  8.29845  4.50914 
P  11.77913  8.25456  4.51715 
P   7.28181  8.22951  4.52118 
P   2.68364 11.71293  4.61736 
P  16.38540 11.56030  4.54945 
P  11.82460 11.52572  4.53274 
P   7.15869 11.50359  4.53368 
P   1.84913  1.62893  6.61543 
P  15.52580  1.74880  6.66891 
P  11.03032  1.70354  6.66535 
P   6.41537  1.69033  6.61198 
P   1.89978  4.94081  6.74193 
P  15.51485  4.95495  6.66840 
P   6.46185  4.96374  6.63843 
P   1.88309  8.20401  6.61190 
P  15.46515  8.31862  6.73757 
P  10.95646  8.25149  6.67574 
P   6.46648  8.30446  6.70584 
P   1.93563 11.60406  6.57889 
P  15.55580 11.54547  6.67729 
P  10.93451 11.57933  6.69986 
P   6.42090 11.72419  6.68917 
62
step 12 = 
P   0.40760 13.20897  6.77939 
P  14.07966 13.29322  6.47672 
P   9.39329 13.16754  6.58325 
P   4.89401 12.95028  6.82315 
P   0.27481  3.40767  6.75065 
P  14.06599  3.20463  6.73910 
P   9.54211  3.22718  6.70448 
P   4.92443  3.24953  6.66486 
P   0.46410  6.69339  6.53081 
P  14.08426  6.56333  6.67685 
P   4.85437  6.54970  6.64988 
P   0.28999  9.89287  6.69707 
P  14.02707  9.81122  6.80166 
P   9.61271  9.96212  6.65707 
P   4.91452  9.91367  6.61602 
P   4.16703 13.06924  4.43196 
P  17.76573 13.18303  4.59262 
P  13.29556 13.22359  4.58924 
P   8.89930 13.25640  4.61208 
P   4.20867  3.30815  4.49207 
P  17.89509  3.35159  4.47542 
P  13.29332  3.20753  4.63131 
P   8.74389  3.35608  4.56841 
P   4.16234  6.60568  4.70145 
P  17.81109  6.54758  4.47805 
P  13.37203  6.56264  4.47843 
P   8.63394  6.69721  4.51235 
P   4.18189  9.75940  4.58527 
P  17.76531 10.00473  4.59880 
P  13.20657 10.08069  4.52628 
P   8.61783  9.88268  4.61636 
P   2.61614  1.69208  4.61095 
P  16.36300  1.61582  4.46072 
P  11.72110  1.70671  4.57693 
P   7.17809  1.75452  4.54893 
P   2.72323  5.05875  4.60747 
P  16.33787  4.95339  4.60168 
P  11.72142  4.93725  4.55782 
P   7.28939  4.82522  4.51587 
P   2.72219  8.32197  4.53636 
P  16.24291  8.31960  4.48421 
P  11.78275  8.24814  4.49689 
P   7.32023  8.20795  4.50273 
P   2.69335 11.80007  4.66098 
P  16.42130 11.55407  4.54876 
P  11.85583 11.49820  4.52146 
P   7.11895 11.46096  4.52235 
P   1.82874  1.61269  6.57977 
P  15.51798  1.80800  6.66750 
P  11.05698  1.73495  6.66150 
P   6.40245  1.71368  6.57656 
P   1.90961  4.92926  6.78612 
P  15.49933  4.95207  6.66797 
P   6.47684  4.96731  6.61904 
P   1.88375  8.16610  6.57548 
P  15.41914  8.35152  6.77805 
P  10.93758  8.24227  6.67887 
P   6.48521  8.32948  6.72758 
P   1.96864 11.62315  6.52154 
P  15.56543 11.52969  6.68050 
P  10.90194 11.58283  6.71815 
P   6.41377 11.81906  6.69966 
62
step 13 = 
P   0.40760 13.20897  6.77939 
P  14.07966 13.29322  6.47672 
P   9.39329 13.16754  6.58325 
P   4.89401 12.95028  6.82315 
P   0.27481  3.40767  6.75065 
P  14.06599  3.20463  6.73910 
P   9.54211  3.22718  6.70448 
P   4.92443  3.24953  6.66486 
P   0.46410  6.69339  6.53081 
P  14.08426  6.56333  6.67685 
P   4.85437  6.54970  6.64988 
P   0.28999  9.89287  6.69707 
P  14.02707  9.81122  6.80166 
P   9.61271  9.96212  6.65707 
P   4.91452  9.91367  6.61602 
P   4.16703 13.06924  4.43196 
P  17.76573 13.18303  4.59262 
P  13.29556 13.22359  4.58924 
P   8.89930 13.25640  4.61208 
P   4.20867  3.30815  4.49207 
P  17.89509  3.35159  4.47542 
P  13.29332  3.20753  4.63131 
P   8.74389  3.35608  4.56841 
P   4.16234  6.60568  4.70145 
P  17.81109  6.54758  4.47805 
P  13.37203  6.56264  4.47843 
P   8.63394  6.69721  4.51235 
P   4.18189  9.75940  4.58527 
P  17.76531 10.00473  4.59880 
P  13.20657 10.08069  4.52628 
P   8.61783  9.88268  4.61636 
P   2.61614  1.69208  4.61095 
P  16.36300  1.61582  4.46072 
P  11.72110  1.70671  4.57693 
P   7.17809  1.75452  4.54893 
P   2.72323  5.05875  4.60747 
P  16.33787  4.95339  4.60168 
P  11.72142  4.93725  4.55782 
P   7.28939  4.82522  4.51587 
P   2.72219  8.32197  4.53636 
P  16.24291  8.31960  4.48421 
P  11.78275  8.24814  4.49689 
P   7.32023  8.20795  4.50273 
P   2.69335 11.80007  4.66098 
P  16.42130 11.55407  4.54876 
P  11.85583 11.49820  4.52146 
P   7.11895 11.46096  4.52235 
P   1.82874  1.61269  6.57977 
P  15.51798  1.80800  6.66750 
P  11.05698  1.73495  6.66150 
P   6.40245  1.71368  6.57656 
P   1.90961  4.92926  6.78612 
P  15.49933  4.95207  6.66797 
P   6.47684  4.96731  6.61904 
P   1.88375  8.16610  6.57548 
P  15.41914  8.35152  6.77805 
P  10.93758  8.24227  6.67887 
P   6.48521  8.32948  6.72758 
P   1.96864 11.62315  6.52154 
P  15.56543 11.52969  6.68050 
P  10.90194 11.58283  6.71815 
P   6.41377 11.81906  6.69966 
62
step 14 = 
P   0.40217 13.21383  6.73843 
P  14.06887 13.26747  6.55022 
P   9.43384 13.18929  6.61661 
P   4.91477 13.05510  6.76401 
P   0.32078  3.36866  6.72019 
P  14.05981  3.24402  6.71306 
P   9.52488  3.25702  6.69178 
P   4.93270  3.27090  6.66693 
P   0.43720  6.66280  6.58420 
P  14.07236  6.58118  6.67457 
P   4.88909  6.57330  6.65767 
P   0.32970  9.90318  6.68617 
P  14.03628  9.85263  6.75178 
P   9.57034  9.94540  6.66232 
P   4.92732  9.91618  6.63717 
P   4.16424 13.12898  4.47677 
P  17.78399 13.19750  4.57608 
P  13.28301 13.22325  4.57477 
P   8.82677 13.24477  4.58874 
P   4.18960  3.30745  4.51442 
P  17.86461  3.33358  4.50328 
P  13.28140  3.24573  4.60060 
P   8.73101  3.33763  4.56165 
P   4.16152  6.60843  4.64510 
P  17.81278  6.57238  4.50613 
P  13.33049  6.58110  4.50559 
P   8.66258  6.66567  4.52687 
P   4.17286  9.81992  4.57243 
P  17.78534  9.97197  4.58027 
P  13.22702 10.01844  4.53503 
P   8.65417  9.89623  4.59128 
P   2.63757  1.67781  4.58787 
P  16.34827  1.62974  4.49562 
P  11.74203  1.68701  4.56755 
P   7.19549  1.71563  4.54970 
P   2.70344  5.02035  4.58553 
P  16.33331  4.95501  4.58200 
P  11.74206  4.94500  4.55417 
P   7.26389  4.87540  4.52852 
P   2.70229  8.30057  4.54099 
P  16.27541  8.29845  4.50914 
P  11.77913  8.25456  4.51715 
P   7.28181  8.22951  4.52118 
P   2.68364 11.71293  4.61736 
P  16.38540 11.56030  4.54945 
P  11.82460 11.52572  4.53274 
P   7.15869 11.50359  4.53368 
P   1.84913  1.62893  6.61543 
P  15.52580  1.74880  6.66891 
P  11.03032  1.70354  6.66535 
P   6.41537  1.69033  6.61198 
P   1.89978  4.94081  6.74193 
P  15.51485  4.95495  6.66840 
P   6.46185  4.96374  6.63843 
P   1.88309  8.20401  6.61190 
P  15.46515  8.31862  6.73757 
P  10.95646  8.25149  6.67574 
P   6.46648  8.30446  6.70584 
P   1.93563 11.60406  6.57889 
P  15.55580 11.54547  6.67729 
P  10.93451 11.57933  6.69986 
P   6.42090 11.72419  6.68917 
62
step 15 = 
P   0.39340 13.22169  6.67217 
P  14.05141 13.22580  6.66915 
P   9.49944 13.22449  6.67058 
P   4.94835 13.22470  6.66832 
P   0.39516  3.30555  6.67091 
P  14.04983  3.30776  6.67094 
P   9.49699  3.30532  6.67123 
P   4.94610  3.30547  6.67027 
P   0.39368  6.61331  6.67057 
P  14.05312  6.61005  6.67087 
P   4.94528  6.61149  6.67029 
P   0.39394  9.91985  6.66852 
P  14.05118  9.91962  6.67108 
P   9.50179  9.91834  6.67081 
P   4.94804  9.92025  6.67140 
P   4.15972 13.22564  4.54928 
P  17.81353 13.22091  4.54931 
P  13.26272 13.22269  4.55135 
P   8.70942 13.22596  4.55097 
P   4.15875  3.30632  4.55060 
P  17.81529  3.30443  4.54837 
P  13.26211  3.30753  4.55091 
P   8.71018  3.30779  4.55071 
P   4.16018  6.61289  4.55393 
P  17.81551  6.61250  4.55158 
P  13.26326  6.61099  4.54953 
P   8.70894  6.61462  4.55038 
P   4.15825  9.91784  4.55166 
P  17.81774  9.91895  4.55030 
P  13.26011  9.91772  4.54920 