      62
 i =     5006, time =     5006.000, E =      -164.4837115698
  P         0.4165581212       12.3289500281       13.8017285384
  P        14.0146588972       12.1894969905       13.6230936054
  P         9.6017536370       12.5389615335       13.0942360427
  P         5.1701913319       12.6212727719       13.6745451164
  P         0.1847514455        2.4310702556       13.5155110050
  P        14.0195040728        2.2442186774       13.5704256654
  P        10.4376785041        2.8173902421       12.9735851271
  P         4.9600100536        2.6778212004       13.4756773037
  P         0.3821434680        5.7107343777       13.5679338101
  P        13.9636494294        5.6153891835       13.6229317411
  P         4.9156715024        6.0268007419       13.3633540571
  P         0.5515058497        9.0094899550       13.6317115605
  P        13.9437032771        8.8813281758       13.8704753986
  P         9.2511240811        9.1790100985       13.2384659390
  P         4.9396847047        9.2551490581       13.4633136432
  P         4.1922688178       12.5677480704       11.6907481623
  P        17.7305748198       12.1583304813       11.7760214776
  P        13.5326462800       12.0570354525       11.3593055546
  P         8.6140048794       12.6906476217       11.1246425487
  P         4.0518053547        2.4801143341       11.4897563032
  P        17.5645956506        2.3423415663       11.4286528892
  P        13.6048093617        2.3181469486       11.4414397448
  P         8.8543522073        2.7572993111       11.3698841668
  P         4.0393616383        5.8659608187       11.3045426384
  P        17.6392268357        5.6563867435       11.5466779177
  P        13.2025932038        5.4268196875       11.5672979624
  P         8.8518140423        6.2951153151       11.3891373432
  P         4.1199098091        9.2706499065       11.4886688071
  P        17.8008301699        9.0460513212       11.6353700970
  P        13.3597822121        8.8235978452       11.6301800556
  P         8.3902262591        9.3682518524       11.1575946192
  P         2.6315771958        0.9283096310       11.6686850261
  P        16.2268993679        0.4740289322       11.6272025272
  P        12.3115340125        0.5794554655       11.1697641991
  P         7.3175838503        1.2417391522       11.4769257967
  P         2.5857476321        4.1815912928       11.4486571552
  P        16.1038153311        3.9964177304       11.5364714062
  P        11.8341549433        3.6560786973       11.3311739223
  P         7.5019623126        4.5598052473       11.5871577608
  P         2.5966215287        7.6154677832       11.4507225172
  P        16.3589360572        7.3691270586       11.8274195033
  P        11.8119144069        7.2744940467       11.4125327249
  P         7.1037177976        7.6235956551       11.0811523456
  P         2.6297194747       10.9871153777       11.7401430174
  P        16.2989922818       10.5593131434       11.9219302804
  P        11.9997341592       10.4705024197       11.3337636465
  P         6.9683617748       11.0657499980       11.4121270025
  P         1.7956338104        0.9047307961       13.6878710740
  P        15.5195471359        0.5687463886       13.6874589423
  P        11.3269525640        0.8053635882       13.1156341687
  P         6.5216549526        1.1523719877       13.6032994081
  P         1.7291430463        3.9784112852       13.4472674474
  P        15.3950410504        3.9129026487       13.6235009681
  P         6.4019886706        4.4404948880       13.5835943006
  P         1.9464308376        7.3630711906       13.5567814392
  P        15.4876828112        7.2869497185       13.8774815048
  P        10.2116419269        7.1623850197       12.9828105973
  P         6.3963109444        7.5658863614       13.2493080938
  P         2.0073397374       10.6414430811       13.8292534490
  P        15.4783015621       10.6248119459       13.9284528732
  P        10.9157166591       10.7118185529       13.2827149081
  P         6.5075672470       10.9098803499       13.5111801525
